 Entering Gaussian System, Link 0=g16
 Initial command:
 /apps/brussel/RL8/skylake/software/Gaussian/G16.A.03-intel-2022a/g16/l1.exe "/tmp/9227904/Gau-3087555.inp" -scrdir="/tmp/9227904/"
 Entering Link 1 = /apps/brussel/RL8/skylake/software/Gaussian/G16.A.03-intel-2022a/g16/l1.exe.bin PID=   3087557.
  
 Copyright (c) 1988,1990,1992,1993,1995,1998,2003,2009,2016,
            Gaussian, Inc.  All Rights Reserved.
  
 This is part of the Gaussian(R) 16 program.  It is based on
 the Gaussian(R) 09 system (copyright 2009, Gaussian, Inc.),
 the Gaussian(R) 03 system (copyright 2003, Gaussian, Inc.),
 the Gaussian(R) 98 system (copyright 1998, Gaussian, Inc.),
 the Gaussian(R) 94 system (copyright 1995, Gaussian, Inc.),
 the Gaussian 92(TM) system (copyright 1992, Gaussian, Inc.),
 the Gaussian 90(TM) system (copyright 1990, Gaussian, Inc.),
 the Gaussian 88(TM) system (copyright 1988, Gaussian, Inc.),
 the Gaussian 86(TM) system (copyright 1986, Carnegie Mellon
 University), and the Gaussian 82(TM) system (copyright 1983,
 Carnegie Mellon University). Gaussian is a federally registered
 trademark of Gaussian, Inc.
  
 This software contains proprietary and confidential information,
 including trade secrets, belonging to Gaussian, Inc.
  
 This software is provided under written license and may be
 used, copied, transmitted, or stored only in accord with that
 written license.
  
 The following legend is applicable only to US Government
 contracts under FAR:
  
                    RESTRICTED RIGHTS LEGEND
  
 Use, reproduction and disclosure by the US Government is
 subject to restrictions as set forth in subparagraphs (a)
 and (c) of the Commercial Computer Software - Restricted
 Rights clause in FAR 52.227-19.
  
 Gaussian, Inc.
 340 Quinnipiac St., Bldg. 40, Wallingford CT 06492
  
  
 ---------------------------------------------------------------
 Warning -- This program may not be used in any manner that
 competes with the business of Gaussian, Inc. or will provide
 assistance to any competitor of Gaussian, Inc.  The licensee
 of this program is prohibited from giving any competitor of
 Gaussian, Inc. access to this program.  By using this program,
 the user acknowledges that Gaussian, Inc. is engaged in the
 business of creating and licensing software in the field of
 computational chemistry and represents and warrants to the
 licensee that it is not a competitor of Gaussian, Inc. and that
 it will not use this program in any manner prohibited above.
 ---------------------------------------------------------------
  

 Cite this work as:
 Gaussian 16, Revision A.03,
 M. J. Frisch, G. W. Trucks, H. B. Schlegel, G. E. Scuseria, 
 M. A. Robb, J. R. Cheeseman, G. Scalmani, V. Barone, 
 G. A. Petersson, H. Nakatsuji, X. Li, M. Caricato, A. V. Marenich, 
 J. Bloino, B. G. Janesko, R. Gomperts, B. Mennucci, H. P. Hratchian, 
 J. V. Ortiz, A. F. Izmaylov, J. L. Sonnenberg, D. Williams-Young, 
 F. Ding, F. Lipparini, F. Egidi, J. Goings, B. Peng, A. Petrone, 
 T. Henderson, D. Ranasinghe, V. G. Zakrzewski, J. Gao, N. Rega, 
 G. Zheng, W. Liang, M. Hada, M. Ehara, K. Toyota, R. Fukuda, 
 J. Hasegawa, M. Ishida, T. Nakajima, Y. Honda, O. Kitao, H. Nakai, 
 T. Vreven, K. Throssell, J. A. Montgomery, Jr., J. E. Peralta, 
 F. Ogliaro, M. J. Bearpark, J. J. Heyd, E. N. Brothers, K. N. Kudin, 
 V. N. Staroverov, T. A. Keith, R. Kobayashi, J. Normand, 
 K. Raghavachari, A. P. Rendell, J. C. Burant, S. S. Iyengar, 
 J. Tomasi, M. Cossi, J. M. Millam, M. Klene, C. Adamo, R. Cammi, 
 J. W. Ochterski, R. L. Martin, K. Morokuma, O. Farkas, 
 J. B. Foresman, and D. J. Fox, Gaussian, Inc., Wallingford CT, 2016.
 
 ******************************************
 Gaussian 16:  ES64L-G16RevA.03 25-Dec-2016
                15-May-2024 
 ******************************************
 %mem=32GB
 %nprocshared=8
 Will use up to    8 processors via shared memory.
 %chk=FM_C1-A_TSEndo_optfreq_CREST.chk
 ----------------------------------------------------------------------
 # opt=(calcfc,ts,noeigentest) freq cc-pvdz empiricaldispersion=gd3 m06
 2x
 ----------------------------------------------------------------------
 1/5=1,10=4,11=1,18=20,26=3,38=1/1,3;
 2/9=110,12=2,17=6,18=5,40=1/2;
 3/5=16,11=2,25=1,30=1,71=2,74=-55,124=31,140=1/1,2,3;
 4//1;
 5/5=2,38=5/2;
 8/6=4,10=90,11=11/1;
 11/6=1,8=1,9=11,15=111,16=1/1,2,10;
 10/6=1,13=1/2;
 6/7=2,8=2,9=2,10=2,28=1/1;
 7/10=1,18=20,25=1/1,2,3,16;
 1/5=1,10=4,11=1,18=20,26=3/3(2);
 2/9=110/2;
 99//99;
 2/9=110/2;
 3/5=16,11=2,25=1,30=1,71=1,74=-55,124=31/1,2,3;
 4/5=5,16=3,69=1/1;
 5/5=2,38=5/2;
 7//1,2,3,16;
 1/5=1,11=1,18=20,26=3/3(-5);
 2/9=110/2;
 6/7=2,8=2,9=2,10=2,19=2,28=1/1;
 99/9=1/99;
 --------------------
 FuranMaleimideTSEndo
 --------------------
 Symbolic Z-matrix:
 Charge =  0 Multiplicity = 1
 C                    -0.39961   1.18947  -0.45801 
 C                    -0.56568   2.22408   0.44891 
 C                    -1.91291   2.57251   0.42543 
 H                     0.21078   2.6553    1.0573 
 H                    -2.39419   3.32509   1.02797 
 C                    -2.52176   1.71895  -0.47858 
 H                    -3.57341   1.74148  -0.76177 
 O                    -1.5776    0.97703  -1.1445 
 C                    -1.32612  -0.1474    0.62117 
 H                    -0.51425   0.18637   1.25288 
 C                    -2.61049   0.28188   0.65856 
 H                    -3.02479   1.00454   1.35126 
 C                    -3.42717  -0.6272   -0.16044 
 C                    -1.27448  -1.34893  -0.22584 
 N                    -2.55981  -1.56627  -0.68385 
 H                    -2.83205  -2.31979  -1.30324 
 O                    -0.2911   -2.01923  -0.45503 
 O                    -4.62571  -0.56086  -0.32409 
 C                     0.93129   0.57601  -0.78312 
 H                     1.28482   0.97475  -1.73943 
 H                     0.8353   -0.50434  -0.90951 
 O                     1.92309   0.8845    0.19387 
 C                     2.52882  -0.24593   0.80574 
 H                     3.18444   0.18554   1.57744 
 C                     3.38233  -1.04227  -0.18397 
 H                     3.91568  -1.83069   0.35695 
 H                     2.71775  -1.56482  -0.87884 
 O                     1.63977  -1.07734   1.52489 
 H                     1.02985  -1.53722   0.89837 
 C                     4.36836  -0.16443  -0.95033 
 H                     3.80967   0.60976  -1.49128 
 H                     4.86527  -0.75939  -1.7286 
 C                     5.41319   0.48861  -0.06029 
 H                     5.96988  -0.25825   0.50762 
 H                     6.13626   1.06842  -0.63743 
 H                     4.95571   1.16902   0.65888 
 
 Add virtual bond connecting atoms C9         and C1         Dist= 3.69D+00.
 Add virtual bond connecting atoms H10        and C1         Dist= 3.75D+00.
 Add virtual bond connecting atoms C11        and C6         Dist= 3.47D+00.
 Add virtual bond connecting atoms O17        and H21        Dist= 3.67D+00.
 Add virtual bond connecting atoms O17        and H29        Dist= 3.69D+00.

 GradGradGradGradGradGradGradGradGradGradGradGradGradGradGradGradGradGrad
 Berny optimization.
 Initialization pass.
                           ----------------------------
                           !    Initial Parameters    !
                           ! (Angstroms and Degrees)  !
 --------------------------                            --------------------------
 ! Name  Definition              Value          Derivative Info.                !
 --------------------------------------------------------------------------------
 ! R1    R(1,2)                  1.3858         calculate D2E/DX2 analytically  !
 ! R2    R(1,8)                  1.3799         calculate D2E/DX2 analytically  !
 ! R3    R(1,9)                  1.952          calculate D2E/DX2 analytically  !
 ! R4    R(1,10)                 1.9866         calculate D2E/DX2 analytically  !
 ! R5    R(1,19)                 1.5011         calculate D2E/DX2 analytically  !
 ! R6    R(2,3)                  1.3918         calculate D2E/DX2 analytically  !
 ! R7    R(2,4)                  1.0766         calculate D2E/DX2 analytically  !
 ! R8    R(3,5)                  1.0775         calculate D2E/DX2 analytically  !
 ! R9    R(3,6)                  1.3844         calculate D2E/DX2 analytically  !
 ! R10   R(6,7)                  1.0893         calculate D2E/DX2 analytically  !
 ! R11   R(6,8)                  1.3731         calculate D2E/DX2 analytically  !
 ! R12   R(6,11)                 1.8347         calculate D2E/DX2 analytically  !
 ! R13   R(9,10)                 1.0815         calculate D2E/DX2 analytically  !
 ! R14   R(9,11)                 1.3547         calculate D2E/DX2 analytically  !
 ! R15   R(9,14)                 1.471          calculate D2E/DX2 analytically  !
 ! R16   R(11,12)                1.0834         calculate D2E/DX2 analytically  !
 ! R17   R(11,13)                1.4711         calculate D2E/DX2 analytically  !
 ! R18   R(13,15)                1.3813         calculate D2E/DX2 analytically  !
 ! R19   R(13,18)                1.2115         calculate D2E/DX2 analytically  !
 ! R20   R(14,15)                1.3817         calculate D2E/DX2 analytically  !
 ! R21   R(14,17)                1.212          calculate D2E/DX2 analytically  !
 ! R22   R(15,16)                1.0127         calculate D2E/DX2 analytically  !
 ! R23   R(17,21)                1.9417         calculate D2E/DX2 analytically  !
 ! R24   R(17,29)                1.9517         calculate D2E/DX2 analytically  !
 ! R25   R(19,20)                1.0948         calculate D2E/DX2 analytically  !
 ! R26   R(19,21)                1.0919         calculate D2E/DX2 analytically  !
 ! R27   R(19,22)                1.426          calculate D2E/DX2 analytically  !
 ! R28   R(22,23)                1.421          calculate D2E/DX2 analytically  !
 ! R29   R(23,24)                1.1007         calculate D2E/DX2 analytically  !
 ! R30   R(23,25)                1.5304         calculate D2E/DX2 analytically  !
 ! R31   R(23,28)                1.4138         calculate D2E/DX2 analytically  !
 ! R32   R(25,26)                1.0948         calculate D2E/DX2 analytically  !
 ! R33   R(25,27)                1.0943         calculate D2E/DX2 analytically  !
 ! R34   R(25,30)                1.5265         calculate D2E/DX2 analytically  !
 ! R35   R(28,29)                0.9879         calculate D2E/DX2 analytically  !
 ! R36   R(30,31)                1.0973         calculate D2E/DX2 analytically  !
 ! R37   R(30,32)                1.0985         calculate D2E/DX2 analytically  !
 ! R38   R(30,33)                1.52           calculate D2E/DX2 analytically  !
 ! R39   R(33,34)                1.091          calculate D2E/DX2 analytically  !
 ! R40   R(33,35)                1.0918         calculate D2E/DX2 analytically  !
 ! R41   R(33,36)                1.0906         calculate D2E/DX2 analytically  !
 ! A1    A(2,1,8)              109.7687         calculate D2E/DX2 analytically  !
 ! A2    A(2,1,9)               95.3146         calculate D2E/DX2 analytically  !
 ! A3    A(2,1,10)              78.8399         calculate D2E/DX2 analytically  !
 ! A4    A(2,1,19)             123.5786         calculate D2E/DX2 analytically  !
 ! A5    A(8,1,9)               76.3734         calculate D2E/DX2 analytically  !
 ! A6    A(8,1,10)             107.5452         calculate D2E/DX2 analytically  !
 ! A7    A(8,1,19)             125.8894         calculate D2E/DX2 analytically  !
 ! A8    A(9,1,19)             105.1103         calculate D2E/DX2 analytically  !
 ! A9    A(10,1,19)             91.7956         calculate D2E/DX2 analytically  !
 ! A10   A(1,2,3)              106.9692         calculate D2E/DX2 analytically  !
 ! A11   A(1,2,4)              125.6229         calculate D2E/DX2 analytically  !
 ! A12   A(3,2,4)              127.4037         calculate D2E/DX2 analytically  !
 ! A13   A(2,3,5)              126.7109         calculate D2E/DX2 analytically  !
 ! A14   A(2,3,6)              106.4028         calculate D2E/DX2 analytically  !
 ! A15   A(5,3,6)              126.8237         calculate D2E/DX2 analytically  !
 ! A16   A(3,6,7)              125.562          calculate D2E/DX2 analytically  !
 ! A17   A(3,6,8)              110.3304         calculate D2E/DX2 analytically  !
 ! A18   A(3,6,11)              95.7088         calculate D2E/DX2 analytically  !
 ! A19   A(7,6,8)              123.294          calculate D2E/DX2 analytically  !
 ! A20   A(7,6,11)              97.5063         calculate D2E/DX2 analytically  !
 ! A21   A(8,6,11)              84.8721         calculate D2E/DX2 analytically  !
 ! A22   A(1,8,6)              105.2216         calculate D2E/DX2 analytically  !
 ! A23   A(1,9,11)             104.3729         calculate D2E/DX2 analytically  !
 ! A24   A(1,9,14)             102.9685         calculate D2E/DX2 analytically  !
 ! A25   A(10,9,11)            126.7121         calculate D2E/DX2 analytically  !
 ! A26   A(10,9,14)            124.1999         calculate D2E/DX2 analytically  !
 ! A27   A(11,9,14)            107.9396         calculate D2E/DX2 analytically  !
 ! A28   A(6,11,9)             100.6755         calculate D2E/DX2 analytically  !
 ! A29   A(6,11,12)             83.8179         calculate D2E/DX2 analytically  !
 ! A30   A(6,11,13)             99.5446         calculate D2E/DX2 analytically  !
 ! A31   A(9,11,12)            126.269          calculate D2E/DX2 analytically  !
 ! A32   A(9,11,13)            108.3684         calculate D2E/DX2 analytically  !
 ! A33   A(12,11,13)           123.7705         calculate D2E/DX2 analytically  !
 ! A34   A(11,13,15)           106.4078         calculate D2E/DX2 analytically  !
 ! A35   A(11,13,18)           126.1978         calculate D2E/DX2 analytically  !
 ! A36   A(15,13,18)           127.3908         calculate D2E/DX2 analytically  !
 ! A37   A(9,14,15)            106.6605         calculate D2E/DX2 analytically  !
 ! A38   A(9,14,17)            126.0961         calculate D2E/DX2 analytically  !
 ! A39   A(15,14,17)           127.237          calculate D2E/DX2 analytically  !
 ! A40   A(13,15,14)           110.5837         calculate D2E/DX2 analytically  !
 ! A41   A(13,15,16)           124.6659         calculate D2E/DX2 analytically  !
 ! A42   A(14,15,16)           124.7409         calculate D2E/DX2 analytically  !
 ! A43   A(14,17,21)            94.7874         calculate D2E/DX2 analytically  !
 ! A44   A(14,17,29)           106.3462         calculate D2E/DX2 analytically  !
 ! A45   A(21,17,29)            64.9751         calculate D2E/DX2 analytically  !
 ! A46   A(1,19,20)            109.0657         calculate D2E/DX2 analytically  !
 ! A47   A(1,19,21)            110.5765         calculate D2E/DX2 analytically  !
 ! A48   A(1,19,22)            112.3252         calculate D2E/DX2 analytically  !
 ! A49   A(20,19,21)           106.7166         calculate D2E/DX2 analytically  !
 ! A50   A(20,19,22)           107.1635         calculate D2E/DX2 analytically  !
 ! A51   A(21,19,22)           110.7623         calculate D2E/DX2 analytically  !
 ! A52   A(17,21,19)           142.7316         calculate D2E/DX2 analytically  !
 ! A53   A(19,22,23)           114.7972         calculate D2E/DX2 analytically  !
 ! A54   A(22,23,24)           104.1205         calculate D2E/DX2 analytically  !
 ! A55   A(22,23,25)           111.9141         calculate D2E/DX2 analytically  !
 ! A56   A(22,23,28)           114.7594         calculate D2E/DX2 analytically  !
 ! A57   A(24,23,25)           108.9762         calculate D2E/DX2 analytically  !
 ! A58   A(24,23,28)           104.3863         calculate D2E/DX2 analytically  !
 ! A59   A(25,23,28)           111.9408         calculate D2E/DX2 analytically  !
 ! A60   A(23,25,26)           109.0803         calculate D2E/DX2 analytically  !
 ! A61   A(23,25,27)           108.6879         calculate D2E/DX2 analytically  !
 ! A62   A(23,25,30)           112.6855         calculate D2E/DX2 analytically  !
 ! A63   A(26,25,27)           105.4081         calculate D2E/DX2 analytically  !
 ! A64   A(26,25,30)           110.3339         calculate D2E/DX2 analytically  !
 ! A65   A(27,25,30)           110.371          calculate D2E/DX2 analytically  !
 ! A66   A(23,28,29)           109.8396         calculate D2E/DX2 analytically  !
 ! A67   A(25,30,31)           108.926          calculate D2E/DX2 analytically  !
 ! A68   A(25,30,32)           109.6595         calculate D2E/DX2 analytically  !
 ! A69   A(25,30,33)           113.3985         calculate D2E/DX2 analytically  !
 ! A70   A(31,30,32)           105.2591         calculate D2E/DX2 analytically  !
 ! A71   A(31,30,33)           109.6045         calculate D2E/DX2 analytically  !
 ! A72   A(32,30,33)           109.6711         calculate D2E/DX2 analytically  !
 ! A73   A(30,33,34)           111.1897         calculate D2E/DX2 analytically  !
 ! A74   A(30,33,35)           111.9545         calculate D2E/DX2 analytically  !
 ! A75   A(30,33,36)           111.4584         calculate D2E/DX2 analytically  !
 ! A76   A(34,33,35)           107.5041         calculate D2E/DX2 analytically  !
 ! A77   A(34,33,36)           107.3299         calculate D2E/DX2 analytically  !
 ! A78   A(35,33,36)           107.1604         calculate D2E/DX2 analytically  !
 ! A79   L(17,29,28,1,-1)      166.5587         calculate D2E/DX2 analytically  !
 ! A80   L(17,29,28,1,-2)      180.2591         calculate D2E/DX2 analytically  !
 ! D1    D(8,1,2,3)              6.1323         calculate D2E/DX2 analytically  !
 ! D2    D(8,1,2,4)           -174.5784         calculate D2E/DX2 analytically  !
 ! D3    D(9,1,2,3)            -71.2764         calculate D2E/DX2 analytically  !
 ! D4    D(9,1,2,4)            108.0129         calculate D2E/DX2 analytically  !
 ! D5    D(10,1,2,3)           -98.6773         calculate D2E/DX2 analytically  !
 ! D6    D(10,1,2,4)            80.612          calculate D2E/DX2 analytically  !
 ! D7    D(19,1,2,3)           176.6377         calculate D2E/DX2 analytically  !
 ! D8    D(19,1,2,4)            -4.0729         calculate D2E/DX2 analytically  !
 ! D9    D(2,1,8,6)            -10.7953         calculate D2E/DX2 analytically  !
 ! D10   D(9,1,8,6)             80.0154         calculate D2E/DX2 analytically  !
 ! D11   D(10,1,8,6)            73.346          calculate D2E/DX2 analytically  !
 ! D12   D(19,1,8,6)           178.9711         calculate D2E/DX2 analytically  !
 ! D13   D(2,1,9,11)            66.07           calculate D2E/DX2 analytically  !
 ! D14   D(2,1,9,14)           178.7325         calculate D2E/DX2 analytically  !
 ! D15   D(8,1,9,11)           -43.015          calculate D2E/DX2 analytically  !
 ! D16   D(8,1,9,14)            69.6474         calculate D2E/DX2 analytically  !
 ! D17   D(19,1,9,11)         -167.0258         calculate D2E/DX2 analytically  !
 ! D18   D(19,1,9,14)          -54.3634         calculate D2E/DX2 analytically  !
 ! D19   D(2,1,19,20)         -101.5586         calculate D2E/DX2 analytically  !
 ! D20   D(2,1,19,21)          141.3883         calculate D2E/DX2 analytically  !
 ! D21   D(2,1,19,22)           17.0908         calculate D2E/DX2 analytically  !
 ! D22   D(8,1,19,20)           67.3947         calculate D2E/DX2 analytically  !
 ! D23   D(8,1,19,21)          -49.6584         calculate D2E/DX2 analytically  !
 ! D24   D(8,1,19,22)         -173.9559         calculate D2E/DX2 analytically  !
 ! D25   D(9,1,19,20)          151.3193         calculate D2E/DX2 analytically  !
 ! D26   D(9,1,19,21)           34.2663         calculate D2E/DX2 analytically  !
 ! D27   D(9,1,19,22)          -90.0312         calculate D2E/DX2 analytically  !
 ! D28   D(10,1,19,20)        -179.3412         calculate D2E/DX2 analytically  !
 ! D29   D(10,1,19,21)          63.6057         calculate D2E/DX2 analytically  !
 ! D30   D(10,1,19,22)         -60.6918         calculate D2E/DX2 analytically  !
 ! D31   D(1,2,3,5)            178.3352         calculate D2E/DX2 analytically  !
 ! D32   D(1,2,3,6)              1.0681         calculate D2E/DX2 analytically  !
 ! D33   D(4,2,3,5)             -0.9377         calculate D2E/DX2 analytically  !
 ! D34   D(4,2,3,6)           -178.2047         calculate D2E/DX2 analytically  !
 ! D35   D(2,3,6,7)           -177.8829         calculate D2E/DX2 analytically  !
 ! D36   D(2,3,6,8)             -7.98           calculate D2E/DX2 analytically  !
 ! D37   D(2,3,6,11)            78.6518         calculate D2E/DX2 analytically  !
 ! D38   D(5,3,6,7)              4.8541         calculate D2E/DX2 analytically  !
 ! D39   D(5,3,6,8)            174.757          calculate D2E/DX2 analytically  !
 ! D40   D(5,3,6,11)           -98.6112         calculate D2E/DX2 analytically  !
 ! D41   D(3,6,8,1)             11.555          calculate D2E/DX2 analytically  !
 ! D42   D(7,6,8,1)           -178.2692         calculate D2E/DX2 analytically  !
 ! D43   D(11,6,8,1)           -82.6462         calculate D2E/DX2 analytically  !
 ! D44   D(3,6,11,9)           -76.8786         calculate D2E/DX2 analytically  !
 ! D45   D(3,6,11,12)           48.9314         calculate D2E/DX2 analytically  !
 ! D46   D(3,6,11,13)          172.2131         calculate D2E/DX2 analytically  !
 ! D47   D(7,6,11,9)           156.0575         calculate D2E/DX2 analytically  !
 ! D48   D(7,6,11,12)          -78.1326         calculate D2E/DX2 analytically  !
 ! D49   D(7,6,11,13)           45.1491         calculate D2E/DX2 analytically  !
 ! D50   D(8,6,11,9)            33.0956         calculate D2E/DX2 analytically  !
 ! D51   D(8,6,11,12)          158.9056         calculate D2E/DX2 analytically  !
 ! D52   D(8,6,11,13)          -77.8128         calculate D2E/DX2 analytically  !
 ! D53   D(1,9,11,6)             5.1828         calculate D2E/DX2 analytically  !
 ! D54   D(1,9,11,12)          -84.9545         calculate D2E/DX2 analytically  !
 ! D55   D(1,9,11,13)          109.0922         calculate D2E/DX2 analytically  !
 ! D56   D(10,9,11,6)           88.0544         calculate D2E/DX2 analytically  !
 ! D57   D(10,9,11,12)          -2.0829         calculate D2E/DX2 analytically  !
 ! D58   D(10,9,11,13)        -168.0362         calculate D2E/DX2 analytically  !
 ! D59   D(14,9,11,6)         -103.8717         calculate D2E/DX2 analytically  !
 ! D60   D(14,9,11,12)         165.991          calculate D2E/DX2 analytically  !
 ! D61   D(14,9,11,13)           0.0377         calculate D2E/DX2 analytically  !
 ! D62   D(1,9,14,15)         -108.8524         calculate D2E/DX2 analytically  !
 ! D63   D(1,9,14,17)           72.0172         calculate D2E/DX2 analytically  !
 ! D64   D(10,9,14,15)         169.6106         calculate D2E/DX2 analytically  !
 ! D65   D(10,9,14,17)          -9.5198         calculate D2E/DX2 analytically  !
 ! D66   D(11,9,14,15)           1.1648         calculate D2E/DX2 analytically  !
 ! D67   D(11,9,14,17)        -177.9655         calculate D2E/DX2 analytically  !
 ! D68   D(6,11,13,15)         103.4745         calculate D2E/DX2 analytically  !
 ! D69   D(6,11,13,18)         -77.1711         calculate D2E/DX2 analytically  !
 ! D70   D(9,11,13,15)          -1.2257         calculate D2E/DX2 analytically  !
 ! D71   D(9,11,13,18)         178.1287         calculate D2E/DX2 analytically  !
 ! D72   D(12,11,13,15)       -167.6101         calculate D2E/DX2 analytically  !
 ! D73   D(12,11,13,18)         11.7442         calculate D2E/DX2 analytically  !
 ! D74   D(11,13,15,14)          2.0032         calculate D2E/DX2 analytically  !
 ! D75   D(11,13,15,16)       -179.0752         calculate D2E/DX2 analytically  !
 ! D76   D(18,13,15,14)       -177.3411         calculate D2E/DX2 analytically  !
 ! D77   D(18,13,15,16)          1.5805         calculate D2E/DX2 analytically  !
 ! D78   D(9,14,15,13)          -1.9865         calculate D2E/DX2 analytically  !
 ! D79   D(9,14,15,16)         179.0929         calculate D2E/DX2 analytically  !
 ! D80   D(17,14,15,13)        177.1308         calculate D2E/DX2 analytically  !
 ! D81   D(17,14,15,16)         -1.7898         calculate D2E/DX2 analytically  !
 ! D82   D(9,14,17,21)         -48.7131         calculate D2E/DX2 analytically  !
 ! D83   D(9,14,17,29)          16.5904         calculate D2E/DX2 analytically  !
 ! D84   D(15,14,17,21)        132.3334         calculate D2E/DX2 analytically  !
 ! D85   D(15,14,17,29)       -162.3631         calculate D2E/DX2 analytically  !
 ! D86   D(14,17,21,19)         20.7827         calculate D2E/DX2 analytically  !
 ! D87   D(29,17,21,19)        -85.0357         calculate D2E/DX2 analytically  !
 ! D88   D(14,17,28,23)       -103.6233         calculate D2E/DX2 analytically  !
 ! D89   D(21,17,28,23)        -15.3637         calculate D2E/DX2 analytically  !
 ! D90   D(1,19,21,17)         -21.9352         calculate D2E/DX2 analytically  !
 ! D91   D(20,19,21,17)       -140.4283         calculate D2E/DX2 analytically  !
 ! D92   D(22,19,21,17)        103.252          calculate D2E/DX2 analytically  !
 ! D93   D(1,19,22,23)         122.4413         calculate D2E/DX2 analytically  !
 ! D94   D(20,19,22,23)       -117.796          calculate D2E/DX2 analytically  !
 ! D95   D(21,19,22,23)         -1.7532         calculate D2E/DX2 analytically  !
 ! D96   D(19,22,23,24)       -175.09           calculate D2E/DX2 analytically  !
 ! D97   D(19,22,23,25)         67.3535         calculate D2E/DX2 analytically  !
 ! D98   D(19,22,23,28)        -61.6269         calculate D2E/DX2 analytically  !
 ! D99   D(22,23,25,26)        173.5866         calculate D2E/DX2 analytically  !
 ! D100  D(22,23,25,27)        -71.9706         calculate D2E/DX2 analytically  !
 ! D101  D(22,23,25,30)         50.6909         calculate D2E/DX2 analytically  !
 ! D102  D(24,23,25,26)         58.9787         calculate D2E/DX2 analytically  !
 ! D103  D(24,23,25,27)        173.4214         calculate D2E/DX2 analytically  !
 ! D104  D(24,23,25,30)        -63.917          calculate D2E/DX2 analytically  !
 ! D105  D(28,23,25,26)        -55.9677         calculate D2E/DX2 analytically  !
 ! D106  D(28,23,25,27)         58.475          calculate D2E/DX2 analytically  !
 ! D107  D(28,23,25,30)       -178.8634         calculate D2E/DX2 analytically  !
 ! D108  D(22,23,28,29)         68.8592         calculate D2E/DX2 analytically  !
 ! D109  D(24,23,28,29)       -177.8339         calculate D2E/DX2 analytically  !
 ! D110  D(25,23,28,29)        -60.108          calculate D2E/DX2 analytically  !
 ! D111  D(23,25,30,31)        -58.397          calculate D2E/DX2 analytically  !
 ! D112  D(23,25,30,32)       -173.1019         calculate D2E/DX2 analytically  !
 ! D113  D(23,25,30,33)         63.9369         calculate D2E/DX2 analytically  !
 ! D114  D(26,25,30,31)        179.4109         calculate D2E/DX2 analytically  !
 ! D115  D(26,25,30,32)         64.7061         calculate D2E/DX2 analytically  !
 ! D116  D(26,25,30,33)        -58.2552         calculate D2E/DX2 analytically  !
 ! D117  D(27,25,30,31)         63.316          calculate D2E/DX2 analytically  !
 ! D118  D(27,25,30,32)        -51.3888         calculate D2E/DX2 analytically  !
 ! D119  D(27,25,30,33)       -174.3501         calculate D2E/DX2 analytically  !
 ! D120  D(25,30,33,34)         56.7678         calculate D2E/DX2 analytically  !
 ! D121  D(25,30,33,35)        177.038          calculate D2E/DX2 analytically  !
 ! D122  D(25,30,33,36)        -62.9448         calculate D2E/DX2 analytically  !
 ! D123  D(31,30,33,34)        178.7243         calculate D2E/DX2 analytically  !
 ! D124  D(31,30,33,35)        -61.0055         calculate D2E/DX2 analytically  !
 ! D125  D(31,30,33,36)         59.0117         calculate D2E/DX2 analytically  !
 ! D126  D(32,30,33,34)        -66.1871         calculate D2E/DX2 analytically  !
 ! D127  D(32,30,33,35)         54.0831         calculate D2E/DX2 analytically  !
 ! D128  D(32,30,33,36)        174.1003         calculate D2E/DX2 analytically  !
 --------------------------------------------------------------------------------
 Trust Radius=3.00D-01 FncErr=1.00D-07 GrdErr=1.00D-06 EigMax=2.50D+02 EigMin=1.00D-04
 Number of steps in this run=    216 maximum allowed number of steps=    216.
 Search for a saddle point of order  1.
 GradGradGradGradGradGradGradGradGradGradGradGradGradGradGradGradGradGrad

                          Input orientation:                          
 ---------------------------------------------------------------------
 Center     Atomic      Atomic             Coordinates (Angstroms)
 Number     Number       Type             X           Y           Z
 ---------------------------------------------------------------------
      1          6           0       -0.399614    1.189472   -0.458008
      2          6           0       -0.565676    2.224082    0.448912
      3          6           0       -1.912913    2.572510    0.425428
      4          1           0        0.210783    2.655301    1.057298
      5          1           0       -2.394186    3.325094    1.027965
      6          6           0       -2.521760    1.718945   -0.478583
      7          1           0       -3.573408    1.741475   -0.761766
      8          8           0       -1.577597    0.977030   -1.144499
      9          6           0       -1.326121   -0.147403    0.621171
     10          1           0       -0.514253    0.186370    1.252878
     11          6           0       -2.610486    0.281883    0.658565
     12          1           0       -3.024787    1.004540    1.351257
     13          6           0       -3.427167   -0.627204   -0.160441
     14          6           0       -1.274478   -1.348928   -0.225838
     15          7           0       -2.559814   -1.566270   -0.683848
     16          1           0       -2.832055   -2.319786   -1.303242
     17          8           0       -0.291102   -2.019231   -0.455034
     18          8           0       -4.625707   -0.560856   -0.324088
     19          6           0        0.931293    0.576009   -0.783123
     20          1           0        1.284817    0.974748   -1.739432
     21          1           0        0.835300   -0.504336   -0.909510
     22          8           0        1.923091    0.884503    0.193868
     23          6           0        2.528815   -0.245927    0.805741
     24          1           0        3.184440    0.185535    1.577436
     25          6           0        3.382328   -1.042272   -0.183971
     26          1           0        3.915683   -1.830694    0.356946
     27          1           0        2.717751   -1.564822   -0.878837
     28          8           0        1.639774   -1.077344    1.524889
     29          1           0        1.029848   -1.537222    0.898369
     30          6           0        4.368355   -0.164429   -0.950330
     31          1           0        3.809673    0.609757   -1.491275
     32          1           0        4.865270   -0.759394   -1.728597
     33          6           0        5.413190    0.488608   -0.060292
     34          1           0        5.969881   -0.258251    0.507619
     35          1           0        6.136260    1.068419   -0.637425
     36          1           0        4.955713    1.169018    0.658876
 ---------------------------------------------------------------------
                    Distance matrix (angstroms):
                    1          2          3          4          5
     1  C    0.000000
     2  C    1.385820   0.000000
     3  C    2.232337   1.391762   0.000000
     4  H    2.194856   1.076556   2.217250   0.000000
     5  H    3.278310   2.211556   1.077524   2.689860   0.000000
     6  C    2.187297   2.222988   1.384378   3.271465   2.205828
     7  H    3.235729   3.277972   2.203927   4.296996   2.664873
     8  O    1.379872   2.262318   2.263330   3.295877   3.301488
     9  C    1.951993   2.496375   2.789367   3.226055   3.655746
    10  H    1.986576   2.191181   2.886969   2.580610   3.665559
    11  C    2.637879   2.827956   2.405812   3.708323   3.073170
    12  H    3.193614   2.889418   2.133530   3.644219   2.426344
    13  C    3.543294   4.085250   3.588088   5.049000   4.254411
    14  C    2.694951   3.704603   4.026093   4.459404   4.967117
    15  N    3.508786   4.430180   4.333414   5.341297   5.184899
    16  H    4.352709   5.371522   5.269505   6.291462   6.122983
    17  O    3.210539   4.347208   4.948694   4.938652   5.931615
    18  O    4.576182   4.983699   4.211770   5.970220   4.680634
    19  C    1.501116   2.544596   3.679147   2.868752   4.679350
    20  H    2.127313   3.126341   4.179107   3.435041   5.168914
    21  H    2.144260   3.354446   4.336094   3.773813   5.371026
    22  O    2.431647   2.837865   4.197370   2.610218   5.029024
    23  C    3.497589   3.975443   5.274199   3.722053   6.085845
    24  H    4.242212   4.415044   5.745240   3.900375   6.424937
    25  C    4.399871   5.162978   6.440310   5.027076   7.342397
    26  H    5.329854   6.044191   7.305164   5.860113   8.175993
    27  H    4.181052   5.186483   6.345209   5.276641   7.326600
    28  O    3.637230   4.113533   5.210742   4.024089   5.991763
    29  H    3.364221   4.110367   5.076752   4.274737   5.948354
    30  C    4.980859   5.657519   6.988410   5.409885   7.862721
    31  H    4.372849   5.051143   6.346191   4.861222   7.225475
    32  H    5.755995   6.567941   7.853991   6.409805   8.773903
    33  C    5.868397   6.246439   7.632192   5.745312   8.377653
    34  H    6.602939   6.991347   8.376061   6.477510   9.114205
    35  H    6.539457   6.887063   8.257187   6.364083   8.979678
    36  H    5.470592   5.625209   7.014436   4.988200   7.668501
                    6          7          8          9         10
     6  C    0.000000
     7  H    1.089341   0.000000
     8  O    1.373072   2.171203   0.000000
     9  C    2.474321   3.245100   2.108359   0.000000
    10  H    3.062161   3.979393   2.739208   1.081475   0.000000
    11  C    1.834700   2.252769   2.191147   1.354724   2.180946
    12  H    2.027739   2.304110   2.885119   2.178409   2.642321
    13  C    2.534835   2.448187   2.638720   2.292492   3.338329
    14  C    3.321361   3.888816   2.519107   1.470970   2.263114
    15  N    3.291841   3.460436   2.765018   2.288724   3.317676
    16  H    4.133726   4.163729   3.530985   3.269625   4.264595
    17  O    4.353200   5.001053   3.332868   2.394415   2.798470
    18  O    3.106115   2.568973   3.511287   3.457127   4.466455
    19  C    3.650017   4.653074   2.566309   2.755228   2.527196
    20  H    4.078431   5.014584   2.923588   3.694410   3.579401
    21  H    4.049510   4.949970   2.841080   2.672475   2.640888
    22  O    4.572219   5.644390   3.748947   3.435810   2.747642
    23  C    5.569427   6.606358   4.707619   3.860609   3.105974
    24  H    6.256139   7.318560   5.541876   4.622818   3.712905
    25  C    6.524521   7.514343   5.440685   4.859890   4.330986
    26  H    7.398562   8.372478   6.349313   5.511786   4.949300
    27  H    6.196435   7.108023   4.998160   4.540044   4.249321
    28  O    5.399213   6.352307   4.658064   3.236978   2.512129
    29  H    5.011241   5.890320   4.158550   2.749368   2.341088
    30  C    7.158444   8.169432   6.057638   5.907365   5.368151
    31  H    6.507141   7.504855   5.410898   5.604649   5.138673
    32  H    7.891319   8.854400   6.698274   6.650508   6.222775
    33  C    8.040655   9.100587   7.091203   6.803470   6.078679
    34  H    8.774387   9.832833   7.824311   7.297727   6.541948
    35  H    8.683877   9.733762   7.731046   7.664816   6.969977
    36  H    7.583458   8.665555   6.780351   6.418397   5.589182
                   11         12         13         14         15
    11  C    0.000000
    12  H    1.083375   0.000000
    13  C    1.471114   2.260471   0.000000
    14  C    2.286183   3.330108   2.271394   0.000000
    15  N    2.284800   3.311633   1.381340   1.381702   0.000000
    16  H    3.265955   4.258480   2.127202   2.128241   1.012695
    17  O    3.451778   4.458577   3.443752   1.211968   2.324776
    18  O    2.395189   2.796460   1.211479   3.444045   2.325553
    19  C    3.835254   4.515505   4.564167   2.980163   4.097199
    20  H    4.626428   5.303388   5.221327   3.773649   4.727813
    21  H    3.866580   4.721021   4.329529   2.373163   3.564467
    22  O    4.597000   5.082859   5.571001   3.922858   5.183928
    23  C    5.168429   5.718719   6.045874   4.092163   5.464094
    24  H    5.868115   6.267090   6.884338   5.048596   6.417061
    25  C    6.194923   6.899093   6.822174   4.667079   5.986109
    26  H    6.866210   7.562891   7.458788   5.244950   6.563934
    27  H    5.845000   6.674704   6.257414   4.051038   5.281166
    28  O    4.545627   5.111019   5.358811   3.410523   4.770126
    29  H    4.076601   4.806841   4.670567   2.570839   3.923000
    30  C    7.175789   7.830858   7.849092   5.811152   7.073591
    31  H    6.778477   7.412535   7.461437   5.593422   6.779188
    32  H    7.916421   8.651587   8.440444   6.348412   7.541513
    33  C    8.058465   8.570770   8.911059   6.937495   8.257126
    34  H    8.598676   9.121974   9.427987   7.362626   8.711268
    35  H    8.877150   9.374631   9.724288   7.805895   9.086553
    36  H    7.618029   8.012167   8.612222   6.777761   8.109738
                   16         17         18         19         20
    16  H    0.000000
    17  O    2.695595   0.000000
    18  O    2.696250   4.575238   0.000000
    19  C    4.776917   2.887414   5.690643   0.000000
    20  H    5.290827   3.618992   6.268618   1.094760   0.000000
    21  H    4.111006   1.941709   5.492587   1.091940   1.754573
    22  O    5.926231   3.708826   6.726373   1.425953   2.037937
    23  C    6.122714   3.561754   7.250026   2.398363   3.084718
    24  H    7.125528   4.590350   8.072873   3.286545   3.902952
    25  C    6.442310   3.810775   8.023716   2.997564   3.299603
    26  H    6.966161   4.288577   8.662080   3.999820   4.380270
    27  H    5.616977   3.072343   7.432501   2.789937   3.040286
    28  O    5.435001   2.921563   6.552994   2.926165   3.872062
    29  H    4.513734   1.951651   5.867963   2.702383   3.651438
    30  C    7.524361   5.039459   9.024549   3.519887   3.380623
    31  H    7.261551   4.980133   8.595830   2.964404   2.563142
    32  H    7.865402   5.458692   9.596390   4.260680   3.978317
    33  C    8.798640   6.243718  10.097050   4.540652   4.483225
    34  H    9.219719   6.574774  10.632487   5.267767   5.340351
    35  H    9.610094   7.132869  10.889107   5.230237   4.975911
    36  H    8.756197   6.239775   9.785821   4.315898   4.389203
                   21         22         23         24         25
    21  H    0.000000
    22  O    2.080771   0.000000
    23  C    2.424222   1.420972   0.000000
    24  H    3.489883   1.998454   1.100689   0.000000
    25  C    2.702431   2.446344   1.530418   2.156206   0.000000
    26  H    3.584954   3.371841   2.153208   2.467690   1.094837
    27  H    2.160832   2.789511   2.147786   3.052020   1.094331
    28  O    2.627131   2.387620   1.413797   1.995900   2.440887
    29  H    2.091203   2.675623   1.980637   2.841002   2.636399
    30  C    3.549603   2.896336   2.544471   2.813135   1.526487
    31  H    3.229017   2.544481   2.765696   3.160359   2.149620
    32  H    4.120269   3.880037   3.485045   3.827262   2.159863
    33  C    4.760692   3.521665   3.099867   2.782325   2.546231
    34  H    5.332235   4.216733   3.453978   3.016643   2.790773
    35  H    5.536042   4.298333   4.101694   3.794514   3.499254
    36  H    4.715692   3.081230   2.813090   2.224500   2.841784
                   26         27         28         29         30
    26  H    0.000000
    27  H    1.741519   0.000000
    28  O    2.666719   2.679098   0.000000
    29  H    2.950815   2.451171   0.987940   0.000000
    30  C    2.165715   2.165804   3.795428   4.055598   0.000000
    31  H    3.063162   2.509217   4.080688   4.248217   1.097320
    32  H    2.529602   2.445944   4.592395   4.713431   1.098457
    33  C    2.792092   3.485969   4.382200   4.923079   1.519969
    34  H    2.591333   3.769050   4.522784   5.117849   2.167788
    35  H    3.784784   4.321856   5.431233   5.934937   2.177915
    36  H    3.189216   3.853170   4.097752   4.774255   2.170856
                   31         32         33         34         35
    31  H    0.000000
    32  H    1.745045   0.000000
    33  C    2.152593   2.154290   0.000000
    34  H    3.068471   2.544007   1.090975   0.000000
    35  H    2.520404   2.479309   1.091830   1.760358   0.000000
    36  H    2.499866   3.070339   1.090617   1.757416   1.756191
                   36
    36  H    0.000000
 Stoichiometry    C13H17NO5
 Framework group  C1[X(C13H17NO5)]
 Deg. of freedom   102
 Full point group                 C1      NOp   1
 Largest Abelian subgroup         C1      NOp   1
 Largest concise Abelian subgroup C1      NOp   1
                         Standard orientation:                         
 ---------------------------------------------------------------------
 Center     Atomic      Atomic             Coordinates (Angstroms)
 Number     Number       Type             X           Y           Z
 ---------------------------------------------------------------------
      1          6           0       -0.448034    1.064848   -0.457950
      2          6           0       -0.628274    2.153711    0.380138
      3          6           0       -1.986179    2.458394    0.363920
      4          1           0        0.146447    2.649184    0.939857
      5          1           0       -2.478689    3.235508    0.924798
      6          6           0       -2.586023    1.526597   -0.465806
      7          1           0       -3.643511    1.497506   -0.725685
      8          8           0       -1.632619    0.769909   -1.101236
      9          6           0       -1.308607   -0.222475    0.730531
     10          1           0       -0.494896    0.178509    1.319321
     11          6           0       -2.605012    0.168936    0.768098
     12          1           0       -3.027767    0.924441    1.419398
     13          6           0       -3.408993   -0.818739    0.031696
     14          6           0       -1.236111   -1.477163   -0.033835
     15          7           0       -2.523065   -1.764585   -0.446434
     16          1           0       -2.783839   -2.566800   -1.006790
     17          8           0       -0.236741   -2.131269   -0.239434
     18          8           0       -4.612185   -0.800418   -0.108565
     19          6           0        0.894799    0.471454   -0.771050
     20          1           0        1.215417    0.814226   -1.760095
     21          1           0        0.830861   -0.617445   -0.821499
     22          8           0        1.896294    0.876426    0.159729
     23          6           0        2.550509   -0.190312    0.832956
     24          1           0        3.207870    0.312922    1.558317
     25          6           0        3.408344   -1.026269   -0.119659
     26          1           0        3.977810   -1.759046    0.461215
     27          1           0        2.746552   -1.615333   -0.761994
     28          8           0        1.703698   -0.997174    1.627128
     29          1           0        1.095930   -1.517383    1.047452
     30          6           0        4.349601   -0.173391   -0.966298
     31          1           0        3.755282    0.544415   -1.545651
     32          1           0        4.849041   -0.804915   -1.713522
     33          6           0        5.391249    0.570802   -0.146877
     34          1           0        5.983264   -0.117964    0.457562
     35          1           0        6.083222    1.131447   -0.778497
     36          1           0        4.927253    1.284678    0.534691
 ---------------------------------------------------------------------
 Rotational constants (GHZ):           0.8924184           0.2385726           0.2095686
 Standard basis: CC-pVDZ (5D, 7F)
 There are   370 symmetry adapted cartesian basis functions of A   symmetry.
 There are   351 symmetry adapted basis functions of A   symmetry.
   351 basis functions,   746 primitive gaussians,   370 cartesian basis functions
    71 alpha electrons       71 beta electrons
       nuclear repulsion energy      1592.0822717802 Hartrees.
 NAtoms=   36 NActive=   36 NUniq=   36 SFac= 1.00D+00 NAtFMM=   60 NAOKFM=F Big=F
 Integral buffers will be    131072 words long.
 Raffenetti 2 integral format.
 Two-electron integral symmetry is turned on.
 Nuclear repulsion after empirical dispersion term =     1592.0801892643 Hartrees.
 One-electron integrals computed using PRISM.
 NBasis=   351 RedAO= T EigKep=  4.77D-04  NBF=   351
 NBsUse=   351 1.00D-06 EigRej= -1.00D+00 NBFU=   351
 ExpMin= 1.22D-01 ExpMax= 1.17D+04 ExpMxC= 4.01D+02 IAcc=3 IRadAn=         5 AccDes= 0.00D+00
 Harris functional with IExCor= 1009 and IRadAn=       5 diagonalized for initial guess.
 HarFok:  IExCor= 1009 AccDes= 0.00D+00 IRadAn=         5 IDoV= 1 UseB2=F ITyADJ=14
 ICtDFT=  3500011 ScaDFX=  1.000000  1.000000  1.000000  1.000000
 FoFCou: FMM=F IPFlag=           0 FMFlag=      100000 FMFlg1=           0
         NFxFlg=           0 DoJE=T BraDBF=F KetDBF=T FulRan=T
         wScrn=  0.000000 ICntrl=       500 IOpCl=  0 I1Cent=   200000004 NGrid=           0
         NMat0=    1 NMatS0=      1 NMatT0=    0 NMatD0=    1 NMtDS0=    0 NMtDT0=    0
 Petite list used in FoFCou.
 Requested convergence on RMS density matrix=1.00D-08 within 128 cycles.
 Requested convergence on MAX density matrix=1.00D-06.
 Requested convergence on             energy=1.00D-06.
 No special actions if energy rises.
 Integral accuracy reduced to 1.0D-05 until final iterations.
 Initial convergence to 1.0D-05 achieved.  Increase integral accuracy.
 SCF Done:  E(RM062X) =  -936.055928008     A.U. after   15 cycles
            NFock= 15  Conv=0.81D-08     -V/T= 2.0050
 DoSCS=F DFT=T ScalE2(SS,OS)=  1.000000  1.000000
 Range of M.O.s used for correlation:     1   351
 NBasis=   351 NAE=    71 NBE=    71 NFC=     0 NFV=     0
 NROrb=    351 NOA=    71 NOB=    71 NVA=   280 NVB=   280
 Symmetrizing basis deriv contribution to polar:
 IMax=3 JMax=2 DiffMx= 0.00D+00
 G2DrvN: will do    37 centers at a time, making    1 passes.
 Calling FoFCou, ICntrl=  3107 FMM=F I1Cent=   0 AccDes= 0.00D+00.
 End of G2Drv F.D. properties file   721 does not exist.
 End of G2Drv F.D. properties file   722 does not exist.
 End of G2Drv F.D. properties file   788 does not exist.
          IDoAtm=111111111111111111111111111111111111
          Differentiating once with respect to nuclear coordinates.
 Keep R1 ints in memory in canonical form, NReq=1933717536.
          There are   111 degrees of freedom in the 1st order CPHF.  IDoFFX=6 NUNeed=     0.
    105 vectors produced by pass  0 Test12= 1.99D-14 1.00D-09 XBig12= 1.50D-01 1.41D-01.
 AX will form   105 AO Fock derivatives at one time.
    105 vectors produced by pass  1 Test12= 1.99D-14 1.00D-09 XBig12= 2.13D-02 2.06D-02.
    105 vectors produced by pass  2 Test12= 1.99D-14 1.00D-09 XBig12= 3.27D-04 2.83D-03.
    105 vectors produced by pass  3 Test12= 1.99D-14 1.00D-09 XBig12= 2.72D-06 2.78D-04.
    105 vectors produced by pass  4 Test12= 1.99D-14 1.00D-09 XBig12= 1.63D-08 1.82D-05.
    105 vectors produced by pass  5 Test12= 1.99D-14 1.00D-09 XBig12= 7.11D-11 8.26D-07.
     77 vectors produced by pass  6 Test12= 1.99D-14 1.00D-09 XBig12= 2.28D-13 3.54D-08.
      7 vectors produced by pass  7 Test12= 1.99D-14 1.00D-09 XBig12= 6.44D-16 1.99D-09.
 InvSVY:  IOpt=1 It=  1 EMax= 7.22D-16
 Solved reduced A of dimension   714 with   111 vectors.
 End of Minotr F.D. properties file   721 does not exist.
 End of Minotr F.D. properties file   722 does not exist.
 End of Minotr F.D. properties file   788 does not exist.

 **********************************************************************

            Population analysis using the SCF density.

 **********************************************************************

 Orbital symmetries:
       Occupied  (A) (A) (A) (A) (A) (A) (A) (A) (A) (A) (A) (A)
                 (A) (A) (A) (A) (A) (A) (A) (A) (A) (A) (A) (A)
                 (A) (A) (A) (A) (A) (A) (A) (A) (A) (A) (A) (A)
                 (A) (A) (A) (A) (A) (A) (A) (A) (A) (A) (A) (A)
                 (A) (A) (A) (A) (A) (A) (A) (A) (A) (A) (A) (A)
                 (A) (A) (A) (A) (A) (A) (A) (A) (A) (A) (A)
       Virtual   (A) (A) (A) (A) (A) (A) (A) (A) (A) (A) (A) (A)
                 (A) (A) (A) (A) (A) (A) (A) (A) (A) (A) (A) (A)
                 (A) (A) (A) (A) (A) (A) (A) (A) (A) (A) (A) (A)
                 (A) (A) (A) (A) (A) (A) (A) (A) (A) (A) (A) (A)
                 (A) (A) (A) (A) (A) (A) (A) (A) (A) (A) (A) (A)
                 (A) (A) (A) (A) (A) (A) (A) (A) (A) (A) (A) (A)
                 (A) (A) (A) (A) (A) (A) (A) (A) (A) (A) (A) (A)
                 (A) (A) (A) (A) (A) (A) (A) (A) (A) (A) (A) (A)
                 (A) (A) (A) (A) (A) (A) (A) (A) (A) (A) (A) (A)
                 (A) (A) (A) (A) (A) (A) (A) (A) (A) (A) (A) (A)
                 (A) (A) (A) (A) (A) (A) (A) (A) (A) (A) (A) (A)
                 (A) (A) (A) (A) (A) (A) (A) (A) (A) (A) (A) (A)
                 (A) (A) (A) (A) (A) (A) (A) (A) (A) (A) (A) (A)
                 (A) (A) (A) (A) (A) (A) (A) (A) (A) (A) (A) (A)
                 (A) (A) (A) (A) (A) (A) (A) (A) (A) (A) (A) (A)
                 (A) (A) (A) (A) (A) (A) (A) (A) (A) (A) (A) (A)
                 (A) (A) (A) (A) (A) (A) (A) (A) (A) (A) (A) (A)
                 (A) (A) (A) (A) (A) (A) (A) (A) (A) (A) (A) (A)
                 (A) (A) (A) (A) (A) (A) (A) (A) (A) (A) (A) (A)
                 (A) (A) (A) (A) (A) (A) (A) (A) (A) (A) (A) (A)
                 (A) (A) (A) (A) (A) (A) (A) (A) (A) (A) (A) (A)
                 (A) (A) (A) (A) (A) (A) (A) (A) (A) (A) (A) (A)
                 (A) (A) (A) (A) (A) (A) (A) (A) (A) (A) (A) (A)
                 (A) (A) (A) (A)
 The electronic state is 1-A.
 Alpha  occ. eigenvalues --  -19.69968 -19.65742 -19.64417 -19.62976 -19.62879
 Alpha  occ. eigenvalues --  -14.80979 -10.67996 -10.67355 -10.64735 -10.64335
 Alpha  occ. eigenvalues --  -10.63863 -10.61617 -10.57843 -10.57156 -10.55648
 Alpha  occ. eigenvalues --  -10.54868 -10.54410 -10.54284 -10.53569  -1.26438
 Alpha  occ. eigenvalues --   -1.20304  -1.19060  -1.17945  -1.11715  -1.07538
 Alpha  occ. eigenvalues --   -0.95238  -0.91850  -0.90846  -0.89158  -0.82157
 Alpha  occ. eigenvalues --   -0.79124  -0.76266  -0.72461  -0.71498  -0.70411
 Alpha  occ. eigenvalues --   -0.68880  -0.66941  -0.65641  -0.63620  -0.61407
 Alpha  occ. eigenvalues --   -0.60133  -0.58293  -0.57372  -0.55273  -0.55071
 Alpha  occ. eigenvalues --   -0.54274  -0.53110  -0.52232  -0.51657  -0.50787
 Alpha  occ. eigenvalues --   -0.50191  -0.49937  -0.48702  -0.48441  -0.47535
 Alpha  occ. eigenvalues --   -0.46810  -0.45666  -0.44887  -0.43416  -0.42301
 Alpha  occ. eigenvalues --   -0.40434  -0.39347  -0.38855  -0.37312  -0.36257
 Alpha  occ. eigenvalues --   -0.35828  -0.35124  -0.34142  -0.33769  -0.31576
 Alpha  occ. eigenvalues --   -0.28279
 Alpha virt. eigenvalues --   -0.02832   0.02422   0.05404   0.09691   0.10074
 Alpha virt. eigenvalues --    0.10971   0.11597   0.11845   0.11945   0.12922
 Alpha virt. eigenvalues --    0.14252   0.14820   0.15107   0.15987   0.16358
 Alpha virt. eigenvalues --    0.17414   0.18144   0.19260   0.19647   0.20342
 Alpha virt. eigenvalues --    0.20866   0.21436   0.22162   0.23835   0.24959
 Alpha virt. eigenvalues --    0.26125   0.26488   0.27389   0.27854   0.29354
 Alpha virt. eigenvalues --    0.29566   0.30779   0.32113   0.33371   0.34837
 Alpha virt. eigenvalues --    0.36256   0.37974   0.39059   0.40727   0.42483
 Alpha virt. eigenvalues --    0.43848   0.45362   0.46151   0.46455   0.47468
 Alpha virt. eigenvalues --    0.49721   0.50349   0.50429   0.51303   0.51860
 Alpha virt. eigenvalues --    0.52546   0.53834   0.54152   0.54405   0.55831
 Alpha virt. eigenvalues --    0.56781   0.57736   0.58456   0.59696   0.60124
 Alpha virt. eigenvalues --    0.61498   0.63170   0.63659   0.64004   0.64905
 Alpha virt. eigenvalues --    0.65533   0.66344   0.67179   0.67763   0.68588
 Alpha virt. eigenvalues --    0.68976   0.69379   0.70061   0.70474   0.71124
 Alpha virt. eigenvalues --    0.71344   0.71796   0.72236   0.73264   0.73691
 Alpha virt. eigenvalues --    0.74470   0.74931   0.74998   0.76859   0.77075
 Alpha virt. eigenvalues --    0.78251   0.78497   0.78769   0.80008   0.80485
 Alpha virt. eigenvalues --    0.82336   0.84358   0.84478   0.85473   0.87473
 Alpha virt. eigenvalues --    0.90168   0.91046   0.91796   0.93398   0.94320
 Alpha virt. eigenvalues --    0.95102   0.96994   0.98017   1.00475   1.01253
 Alpha virt. eigenvalues --    1.03675   1.04992   1.06698   1.07537   1.08480
 Alpha virt. eigenvalues --    1.09503   1.10033   1.11142   1.13301   1.13707
 Alpha virt. eigenvalues --    1.14822   1.16973   1.17852   1.19046   1.19378
 Alpha virt. eigenvalues --    1.19812   1.21116   1.22811   1.24070   1.24697
 Alpha virt. eigenvalues --    1.27457   1.27752   1.29412   1.30649   1.32048
 Alpha virt. eigenvalues --    1.32410   1.33179   1.34296   1.36080   1.38174
 Alpha virt. eigenvalues --    1.39396   1.39738   1.41598   1.42084   1.43555
 Alpha virt. eigenvalues --    1.43921   1.45803   1.46420   1.47858   1.49114
 Alpha virt. eigenvalues --    1.49427   1.51660   1.53135   1.54847   1.55746
 Alpha virt. eigenvalues --    1.56133   1.57664   1.60910   1.61446   1.62118
 Alpha virt. eigenvalues --    1.62685   1.62917   1.64669   1.65659   1.66332
 Alpha virt. eigenvalues --    1.67000   1.67624   1.68216   1.69386   1.69655
 Alpha virt. eigenvalues --    1.70358   1.71395   1.71934   1.72652   1.73238
 Alpha virt. eigenvalues --    1.73583   1.74195   1.74764   1.75936   1.76794
 Alpha virt. eigenvalues --    1.77363   1.78079   1.78681   1.78999   1.79325
 Alpha virt. eigenvalues --    1.80430   1.81018   1.82097   1.83538   1.83684
 Alpha virt. eigenvalues --    1.84564   1.84907   1.87032   1.88386   1.89605
 Alpha virt. eigenvalues --    1.90767   1.91533   1.92366   1.92892   1.94889
 Alpha virt. eigenvalues --    1.96043   1.97479   1.97648   1.98489   1.99281
 Alpha virt. eigenvalues --    1.99977   2.02600   2.03893   2.05631   2.06650
 Alpha virt. eigenvalues --    2.08327   2.08876   2.09796   2.11580   2.13171
 Alpha virt. eigenvalues --    2.13728   2.14682   2.16511   2.18367   2.19091
 Alpha virt. eigenvalues --    2.20874   2.21160   2.22560   2.24413   2.27716
 Alpha virt. eigenvalues --    2.27944   2.29016   2.30609   2.30644   2.31693
 Alpha virt. eigenvalues --    2.31951   2.33647   2.33822   2.34472   2.38806
 Alpha virt. eigenvalues --    2.40374   2.43193   2.45180   2.45624   2.48417
 Alpha virt. eigenvalues --    2.49501   2.50288   2.51288   2.52483   2.55423
 Alpha virt. eigenvalues --    2.56386   2.57259   2.59645   2.61425   2.62555
 Alpha virt. eigenvalues --    2.63868   2.65072   2.65543   2.70277   2.71600
 Alpha virt. eigenvalues --    2.74501   2.77057   2.78691   2.79975   2.83257
 Alpha virt. eigenvalues --    2.85378   2.88570   2.98844   3.00995   3.03897
 Alpha virt. eigenvalues --    3.04971   3.07708   3.12390   3.15143   3.16496
 Alpha virt. eigenvalues --    3.18449   3.20018   3.28645   3.30138   3.30702
 Alpha virt. eigenvalues --    3.34025   3.36918   3.40321   3.44062   3.45756
 Alpha virt. eigenvalues --    3.49198   3.51175   3.56583   3.58689   3.76471
          Condensed to atoms (all electrons):
               1          2          3          4          5          6
     1  C    5.193815   0.404057  -0.006046  -0.044907   0.010005  -0.201527
     2  C    0.404057   4.863390   0.540356   0.421148  -0.041786  -0.003212
     3  C   -0.006046   0.540356   4.832177  -0.046790   0.413752   0.451219
     4  H   -0.044907   0.421148  -0.046790   0.640306  -0.006424   0.011490
     5  H    0.010005  -0.041786   0.413752  -0.006424   0.644910  -0.047283
     6  C   -0.201527  -0.003212   0.451219   0.011490  -0.047283   4.892743
     7  H   -0.001077   0.007901  -0.034339  -0.000070  -0.004480   0.406473
     8  O    0.353638  -0.065623  -0.044946   0.002984   0.003109   0.389093
     9  C    0.116452  -0.051400  -0.052265  -0.001696   0.000403  -0.088062
    10  H   -0.051630  -0.011360  -0.007105   0.007255  -0.000258   0.007560
    11  C   -0.045116  -0.039638  -0.063523   0.000004  -0.001088   0.150371
    12  H    0.005914  -0.009763  -0.013800  -0.000408   0.006676  -0.043127
    13  C   -0.000675   0.002844  -0.001351   0.000025  -0.000219  -0.018925
    14  C   -0.007929  -0.000763   0.003549  -0.000257  -0.000004  -0.002884
    15  N    0.000283  -0.000328  -0.000264   0.000003  -0.000001  -0.001377
    16  H    0.000102   0.000031   0.000041  -0.000000  -0.000000   0.000042
    17  O   -0.005413   0.000098  -0.000020  -0.000004  -0.000000   0.000085
    18  O   -0.000045  -0.000018  -0.000042   0.000000  -0.000010  -0.008966
    19  C    0.417024  -0.082519   0.007687  -0.011829  -0.000218   0.000070
    20  H   -0.022386  -0.000986   0.000158   0.000525   0.000008   0.000123
    21  H   -0.021137   0.011866  -0.000124   0.000602   0.000002   0.000345
    22  O   -0.049533   0.009027   0.000721   0.010762   0.000002  -0.000061
    23  C   -0.000543   0.000724   0.000030   0.000139   0.000001  -0.000012
    24  H   -0.000126  -0.000166  -0.000010  -0.000206  -0.000000   0.000001
    25  C    0.000450   0.000123   0.000004   0.000079   0.000000  -0.000000
    26  H   -0.000006  -0.000002  -0.000000  -0.000003  -0.000000   0.000000
    27  H    0.000898  -0.000053  -0.000000  -0.000004   0.000000   0.000001
    28  O   -0.002822  -0.000161   0.000002   0.000068  -0.000000  -0.000007
    29  H   -0.000961  -0.000292  -0.000035  -0.000101  -0.000000  -0.000031
    30  C    0.000150   0.000006  -0.000000   0.000001  -0.000000   0.000000
    31  H    0.000266   0.000012  -0.000000   0.000003  -0.000000   0.000000
    32  H   -0.000009   0.000000   0.000000   0.000000   0.000000  -0.000000
    33  C   -0.000002  -0.000002  -0.000000  -0.000002  -0.000000   0.000000
    34  H    0.000000   0.000000   0.000000  -0.000000   0.000000   0.000000
    35  H   -0.000001   0.000000  -0.000000  -0.000000   0.000000  -0.000000
    36  H   -0.000011   0.000003   0.000000   0.000010  -0.000000  -0.000000
               7          8          9         10         11         12
     1  C   -0.001077   0.353638   0.116452  -0.051630  -0.045116   0.005914
     2  C    0.007901  -0.065623  -0.051400  -0.011360  -0.039638  -0.009763
     3  C   -0.034339  -0.044946  -0.052265  -0.007105  -0.063523  -0.013800
     4  H   -0.000070   0.002984  -0.001696   0.007255   0.000004  -0.000408
     5  H   -0.004480   0.003109   0.000403  -0.000258  -0.001088   0.006676
     6  C    0.406473   0.389093  -0.088062   0.007560   0.150371  -0.043127
     7  H    0.605726  -0.009415   0.003702  -0.000321  -0.050340   0.000068
     8  O   -0.009415   7.918574  -0.169495   0.005109  -0.147251   0.004288
     9  C    0.003702  -0.169495   5.507981   0.374227   0.396161  -0.010491
    10  H   -0.000321   0.005109   0.374227   0.673351  -0.008196  -0.007686
    11  C   -0.050340  -0.147251   0.396161  -0.008196   5.449490   0.397679
    12  H    0.000068   0.004288  -0.010491  -0.007686   0.397679   0.671215
    13  C    0.005316   0.005455  -0.040265   0.005970   0.251246  -0.031542
    14  C    0.000494   0.001858   0.291220  -0.041771  -0.043545   0.006675
    15  N    0.001229  -0.005204  -0.087546   0.001831  -0.108767   0.003263
    16  H   -0.000200  -0.000146   0.009903  -0.000013   0.011050  -0.000071
    17  O    0.000014   0.000136  -0.088780  -0.004148   0.005043  -0.000081
    18  O    0.016285  -0.000025   0.006042  -0.000074  -0.089733  -0.000081
    19  C   -0.000258  -0.020407  -0.012239   0.000879   0.006382  -0.000180
    20  H    0.000004   0.001316   0.006587   0.001003  -0.000022   0.000009
    21  H    0.000023   0.003346  -0.018598   0.002287   0.000994  -0.000071
    22  O    0.000002   0.000459  -0.002030   0.007451  -0.000025  -0.000001
    23  C    0.000000   0.000004  -0.000379   0.001186   0.000076   0.000001
    24  H    0.000000   0.000002   0.000225  -0.000853   0.000008   0.000000
    25  C    0.000000  -0.000000  -0.000213   0.001315  -0.000004  -0.000000
    26  H   -0.000000  -0.000000  -0.000010  -0.000012  -0.000000  -0.000000
    27  H    0.000000  -0.000003   0.000168  -0.000125  -0.000003   0.000000
    28  O    0.000000   0.000001  -0.000045   0.025573   0.000589   0.000005
    29  H   -0.000001   0.000070  -0.000257  -0.005903   0.000073   0.000005
    30  C    0.000000  -0.000000  -0.000003  -0.000080  -0.000000  -0.000000
    31  H   -0.000000  -0.000002  -0.000008  -0.000016  -0.000000   0.000000
    32  H   -0.000000  -0.000000  -0.000000   0.000002   0.000000  -0.000000
    33  C    0.000000   0.000000   0.000000   0.000001   0.000000   0.000000
    34  H    0.000000  -0.000000  -0.000000  -0.000000   0.000000   0.000000
    35  H    0.000000   0.000000   0.000000  -0.000000   0.000000   0.000000
    36  H   -0.000000  -0.000000  -0.000000   0.000001   0.000000  -0.000000
              13         14         15         16         17         18
     1  C   -0.000675  -0.007929   0.000283   0.000102  -0.005413  -0.000045
     2  C    0.002844  -0.000763  -0.000328   0.000031   0.000098  -0.000018
     3  C   -0.001351   0.003549  -0.000264   0.000041  -0.000020  -0.000042
     4  H    0.000025  -0.000257   0.000003  -0.000000  -0.000004   0.000000
     5  H   -0.000219  -0.000004  -0.000001  -0.000000  -0.000000  -0.000010
     6  C   -0.018925  -0.002884  -0.001377   0.000042   0.000085  -0.008966
     7  H    0.005316   0.000494   0.001229  -0.000200   0.000014   0.016285
     8  O    0.005455   0.001858  -0.005204  -0.000146   0.000136  -0.000025
     9  C   -0.040265   0.291220  -0.087546   0.009903  -0.088780   0.006042
    10  H    0.005970  -0.041771   0.001831  -0.000013  -0.004148  -0.000074
    11  C    0.251246  -0.043545  -0.108767   0.011050   0.005043  -0.089733
    12  H   -0.031542   0.006675   0.003263  -0.000071  -0.000081  -0.000081
    13  C    4.514555  -0.062476   0.363649  -0.017999   0.000090   0.799712
    14  C   -0.062476   4.514521   0.407197  -0.021527   0.694681   0.000049
    15  N    0.363649   0.407197   6.344457   0.351195  -0.054119  -0.068046
    16  H   -0.017999  -0.021527   0.351195   0.539956   0.002662   0.003083
    17  O    0.000090   0.694681  -0.054119   0.002662   7.690825  -0.000008
    18  O    0.799712   0.000049  -0.068046   0.003083  -0.000008   7.585528
    19  C    0.000012  -0.009584   0.000272  -0.000038  -0.022287   0.000001
    20  H   -0.000023  -0.000103  -0.000035  -0.000003   0.000144  -0.000000
    21  H    0.000180  -0.009397  -0.000680  -0.000031   0.035367   0.000001
    22  O   -0.000002  -0.000436  -0.000002  -0.000000   0.000177   0.000000
    23  C   -0.000003   0.000415   0.000002   0.000000  -0.000318   0.000000
    24  H   -0.000000  -0.000020  -0.000000   0.000000  -0.000038   0.000000
    25  C    0.000000  -0.000133  -0.000001  -0.000000  -0.000656  -0.000000
    26  H    0.000000   0.000014  -0.000000  -0.000000   0.000001   0.000000
    27  H   -0.000000  -0.000200   0.000000   0.000002   0.001032   0.000000
    28  O   -0.000014  -0.003394  -0.000005   0.000002  -0.008477   0.000000
    29  H    0.000006  -0.004865   0.000679  -0.000077   0.043737   0.000000
    30  C    0.000000   0.000001  -0.000000   0.000000   0.000000  -0.000000
    31  H    0.000000   0.000007   0.000000   0.000000   0.000003   0.000000
    32  H   -0.000000   0.000000   0.000000  -0.000000  -0.000000  -0.000000
    33  C   -0.000000  -0.000000  -0.000000  -0.000000  -0.000000  -0.000000
    34  H   -0.000000   0.000000   0.000000   0.000000   0.000000   0.000000
    35  H   -0.000000   0.000000  -0.000000   0.000000  -0.000000   0.000000
    36  H    0.000000  -0.000000  -0.000000   0.000000  -0.000000  -0.000000
              19         20         21         22         23         24
     1  C    0.417024  -0.022386  -0.021137  -0.049533  -0.000543  -0.000126
     2  C   -0.082519  -0.000986   0.011866   0.009027   0.000724  -0.000166
     3  C    0.007687   0.000158  -0.000124   0.000721   0.000030  -0.000010
     4  H   -0.011829   0.000525   0.000602   0.010762   0.000139  -0.000206
     5  H   -0.000218   0.000008   0.000002   0.000002   0.000001  -0.000000
     6  C    0.000070   0.000123   0.000345  -0.000061  -0.000012   0.000001
     7  H   -0.000258   0.000004   0.000023   0.000002   0.000000   0.000000
     8  O   -0.020407   0.001316   0.003346   0.000459   0.000004   0.000002
     9  C   -0.012239   0.006587  -0.018598  -0.002030  -0.000379   0.000225
    10  H    0.000879   0.001003   0.002287   0.007451   0.001186  -0.000853
    11  C    0.006382  -0.000022   0.000994  -0.000025   0.000076   0.000008
    12  H   -0.000180   0.000009  -0.000071  -0.000001   0.000001   0.000000
    13  C    0.000012  -0.000023   0.000180  -0.000002  -0.000003  -0.000000
    14  C   -0.009584  -0.000103  -0.009397  -0.000436   0.000415  -0.000020
    15  N    0.000272  -0.000035  -0.000680  -0.000002   0.000002  -0.000000
    16  H   -0.000038  -0.000003  -0.000031  -0.000000   0.000000   0.000000
    17  O   -0.022287   0.000144   0.035367   0.000177  -0.000318  -0.000038
    18  O    0.000001  -0.000000   0.000001   0.000000   0.000000   0.000000
    19  C    4.559523   0.360691   0.353327   0.322124  -0.068663   0.007081
    20  H    0.360691   0.653816  -0.036005  -0.027610   0.001996  -0.000516
    21  H    0.353327  -0.036005   0.661160  -0.032663  -0.000994   0.000606
    22  O    0.322124  -0.027610  -0.032663   7.904551   0.314807  -0.029802
    23  C   -0.068663   0.001996  -0.000994   0.314807   4.521484   0.393059
    24  H    0.007081  -0.000516   0.000606  -0.029802   0.393059   0.661709
    25  C   -0.014102   0.002742  -0.002799  -0.062762   0.407783  -0.043984
    26  H    0.000405   0.000020  -0.001171   0.004066  -0.018572  -0.007516
    27  H    0.000457  -0.000726   0.002559  -0.003836  -0.015012   0.008249
    28  O    0.004286  -0.000070   0.002543  -0.044492   0.369102  -0.027695
    29  H    0.002908   0.000387  -0.005040   0.004965  -0.059467   0.007403
    30  C   -0.001307  -0.000036   0.000486   0.004897  -0.057430  -0.008337
    31  H    0.000102   0.000267  -0.000429   0.009658  -0.012675  -0.000745
    32  H   -0.000289  -0.000189   0.000144   0.000292   0.005778  -0.000186
    33  C    0.000117   0.000077   0.000000  -0.002626  -0.002498   0.006626
    34  H    0.000013   0.000002  -0.000005   0.000035  -0.002258   0.000811
    35  H    0.000010   0.000007  -0.000002  -0.000062   0.000145  -0.000257
    36  H   -0.000119  -0.000083   0.000062   0.002895   0.002846   0.001211
              25         26         27         28         29         30
     1  C    0.000450  -0.000006   0.000898  -0.002822  -0.000961   0.000150
     2  C    0.000123  -0.000002  -0.000053  -0.000161  -0.000292   0.000006
     3  C    0.000004  -0.000000  -0.000000   0.000002  -0.000035  -0.000000
     4  H    0.000079  -0.000003  -0.000004   0.000068  -0.000101   0.000001
     5  H    0.000000  -0.000000   0.000000  -0.000000  -0.000000  -0.000000
     6  C   -0.000000   0.000000   0.000001  -0.000007  -0.000031   0.000000
     7  H    0.000000  -0.000000   0.000000   0.000000  -0.000001   0.000000
     8  O   -0.000000  -0.000000  -0.000003   0.000001   0.000070  -0.000000
     9  C   -0.000213  -0.000010   0.000168  -0.000045  -0.000257  -0.000003
    10  H    0.001315  -0.000012  -0.000125   0.025573  -0.005903  -0.000080
    11  C   -0.000004  -0.000000  -0.000003   0.000589   0.000073  -0.000000
    12  H   -0.000000  -0.000000   0.000000   0.000005   0.000005  -0.000000
    13  C    0.000000   0.000000  -0.000000  -0.000014   0.000006   0.000000
    14  C   -0.000133   0.000014  -0.000200  -0.003394  -0.004865   0.000001
    15  N   -0.000001  -0.000000   0.000000  -0.000005   0.000679  -0.000000
    16  H   -0.000000  -0.000000   0.000002   0.000002  -0.000077   0.000000
    17  O   -0.000656   0.000001   0.001032  -0.008477   0.043737   0.000000
    18  O   -0.000000   0.000000   0.000000   0.000000   0.000000  -0.000000
    19  C   -0.014102   0.000405   0.000457   0.004286   0.002908  -0.001307
    20  H    0.002742   0.000020  -0.000726  -0.000070   0.000387  -0.000036
    21  H   -0.002799  -0.001171   0.002559   0.002543  -0.005040   0.000486
    22  O   -0.062762   0.004066  -0.003836  -0.044492   0.004965   0.004897
    23  C    0.407783  -0.018572  -0.015012   0.369102  -0.059467  -0.057430
    24  H   -0.043984  -0.007516   0.008249  -0.027695   0.007403  -0.008337
    25  C    4.781796   0.374445   0.365872  -0.047211  -0.004300   0.388920
    26  H    0.374445   0.658507  -0.029874   0.002904  -0.000217  -0.022612
    27  H    0.365872  -0.029874   0.657555  -0.002429   0.006318  -0.014541
    28  O   -0.047211   0.002904  -0.002429   7.674979   0.347744   0.004658
    29  H   -0.004300  -0.000217   0.006318   0.347744   0.486179   0.000328
    30  C    0.388920  -0.022612  -0.014541   0.004658   0.000328   4.659820
    31  H   -0.029035   0.009073  -0.005125   0.000251  -0.000007   0.383525
    32  H   -0.011295  -0.005713  -0.007281  -0.000115  -0.000049   0.373919
    33  C   -0.057167  -0.007865   0.006841  -0.000082   0.000036   0.437620
    34  H   -0.003118   0.005591   0.000262  -0.000010  -0.000000  -0.031402
    35  H    0.005917   0.000138  -0.000309  -0.000000   0.000000  -0.013256
    36  H   -0.008572  -0.001082  -0.000144   0.000077  -0.000027  -0.024557
              31         32         33         34         35         36
     1  C    0.000266  -0.000009  -0.000002   0.000000  -0.000001  -0.000011
     2  C    0.000012   0.000000  -0.000002   0.000000   0.000000   0.000003
     3  C   -0.000000   0.000000  -0.000000   0.000000  -0.000000   0.000000
     4  H    0.000003   0.000000  -0.000002  -0.000000  -0.000000   0.000010
     5  H   -0.000000   0.000000  -0.000000   0.000000   0.000000  -0.000000
     6  C    0.000000  -0.000000   0.000000   0.000000  -0.000000  -0.000000
     7  H   -0.000000  -0.000000   0.000000   0.000000   0.000000  -0.000000
     8  O   -0.000002  -0.000000   0.000000  -0.000000   0.000000  -0.000000
     9  C   -0.000008  -0.000000   0.000000  -0.000000   0.000000  -0.000000
    10  H   -0.000016   0.000002   0.000001  -0.000000  -0.000000   0.000001
    11  C   -0.000000   0.000000   0.000000   0.000000   0.000000   0.000000
    12  H    0.000000  -0.000000   0.000000   0.000000   0.000000  -0.000000
    13  C    0.000000  -0.000000  -0.000000  -0.000000  -0.000000   0.000000
    14  C    0.000007   0.000000  -0.000000   0.000000   0.000000  -0.000000
    15  N    0.000000   0.000000  -0.000000   0.000000  -0.000000  -0.000000
    16  H    0.000000  -0.000000  -0.000000   0.000000   0.000000   0.000000
    17  O    0.000003  -0.000000  -0.000000   0.000000  -0.000000  -0.000000
    18  O    0.000000  -0.000000  -0.000000   0.000000   0.000000  -0.000000
    19  C    0.000102  -0.000289   0.000117   0.000013   0.000010  -0.000119
    20  H    0.000267  -0.000189   0.000077   0.000002   0.000007  -0.000083
    21  H   -0.000429   0.000144   0.000000  -0.000005  -0.000002   0.000062
    22  O    0.009658   0.000292  -0.002626   0.000035  -0.000062   0.002895
    23  C   -0.012675   0.005778  -0.002498  -0.002258   0.000145   0.002846
    24  H   -0.000745  -0.000186   0.006626   0.000811  -0.000257   0.001211
    25  C   -0.029035  -0.011295  -0.057167  -0.003118   0.005917  -0.008572
    26  H    0.009073  -0.005713  -0.007865   0.005591   0.000138  -0.001082
    27  H   -0.005125  -0.007281   0.006841   0.000262  -0.000309  -0.000144
    28  O    0.000251  -0.000115  -0.000082  -0.000010  -0.000000   0.000077
    29  H   -0.000007  -0.000049   0.000036  -0.000000   0.000000  -0.000027
    30  C    0.383525   0.373919   0.437620  -0.031402  -0.013256  -0.024557
    31  H    0.679936  -0.035335  -0.028395   0.008435  -0.004528  -0.008188
    32  H   -0.035335   0.683644  -0.026930  -0.007331  -0.006295   0.008570
    33  C   -0.028395  -0.026930   4.561595   0.398428   0.389937   0.396980
    34  H    0.008435  -0.007331   0.398428   0.649880  -0.026286  -0.030395
    35  H   -0.004528  -0.006295   0.389937  -0.026286   0.640255  -0.023754
    36  H   -0.008188   0.008570   0.396980  -0.030395  -0.023754   0.640151
 Mulliken charges:
               1
     1  C   -0.041150
     2  C    0.046487
     3  C    0.020965
     4  H    0.017299
     5  H    0.022905
     6  C    0.105857
     7  H    0.053264
     8  O   -0.226925
     9  C   -0.089290
    10  H    0.024551
    11  C   -0.071915
    12  H    0.021503
    13  C    0.224434
    14  C    0.288605
    15  N   -0.147684
    16  H    0.122037
    17  O   -0.289744
    18  O   -0.243653
    19  C    0.200669
    20  H    0.058913
    21  H    0.053247
    22  O   -0.340950
    23  C    0.219247
    24  H    0.033467
    25  C   -0.044091
    26  H    0.039491
    27  H    0.029453
    28  O   -0.295755
    29  H    0.180789
    30  C   -0.080772
    31  H    0.032950
    32  H    0.028669
    33  C   -0.072689
    34  H    0.037349
    35  H    0.038343
    36  H    0.044127
 Sum of Mulliken charges =   0.00000
 Mulliken charges with hydrogens summed into heavy atoms:
               1
     1  C   -0.041150
     2  C    0.063786
     3  C    0.043870
     6  C    0.159121
     8  O   -0.226925
     9  C   -0.064739
    11  C   -0.050412
    13  C    0.224434
    14  C    0.288605
    15  N   -0.025647
    17  O   -0.289744
    18  O   -0.243653
    19  C    0.312829
    22  O   -0.340950
    23  C    0.252714
    25  C    0.024853
    28  O   -0.114966
    30  C   -0.019153
    33  C    0.047129
 APT charges:
               1
     1  C   -0.165861
     2  C   -0.639087
     3  C   -0.251890
     4  H    0.370136
     5  H    0.757347
     6  C   -0.547195
     7  H    0.725035
     8  O   -0.273426
     9  C   -0.187350
    10  H    0.005223
    11  C   -0.259789
    12  H    0.426150
    13  C   -1.561606
    14  C   -0.310184
    15  N   -0.416217
    16  H    0.815473
    17  O   -0.124136
    18  O    1.440253
    19  C   -0.275761
    20  H    0.406426
    21  H    0.125608
    22  O   -0.214927
    23  C   -0.534865
    24  H    0.580377
    25  C   -0.523184
    26  H    0.586371
    27  H   -0.004369
    28  O   -0.084398
    29  H    0.000118
    30  C   -0.712392
    31  H   -0.067996
    32  H    0.623934
    33  C   -0.975698
    34  H    0.578690
    35  H    0.805099
    36  H   -0.115908
 Sum of APT charges =   0.00000
 APT charges with hydrogens summed into heavy atoms:
               1
     1  C   -0.165861
     2  C   -0.268951
     3  C    0.505457
     6  C    0.177840
     8  O   -0.273426
     9  C   -0.182127
    11  C    0.166361
    13  C   -1.561606
    14  C   -0.310184
    15  N    0.399256
    17  O   -0.124136
    18  O    1.440253
    19  C    0.256273
    22  O   -0.214927
    23  C    0.045512
    25  C    0.058817
    28  O   -0.084280
    30  C   -0.156454
    33  C    0.292184
 Electronic spatial extent (au):  <R**2>=           5285.1300
 Charge=              0.0000 electrons
 Dipole moment (field-independent basis, Debye):
    X=              0.7046    Y=              2.1206    Z=             -1.2611  Tot=              2.5659
 Quadrupole moment (field-independent basis, Debye-Ang):
   XX=           -118.5664   YY=           -106.3135   ZZ=           -113.9563
   XY=             -4.6774   XZ=             -2.0904   YZ=              6.5124
 Traceless Quadrupole moment (field-independent basis, Debye-Ang):
   XX=             -5.6210   YY=              6.6319   ZZ=             -1.0109
   XY=             -4.6774   XZ=             -2.0904   YZ=              6.5124
 Octapole moment (field-independent basis, Debye-Ang**2):
  XXX=             95.4700  YYY=             -8.6223  ZZZ=            -10.5334  XYY=            -32.9468
  XXY=             14.5508  XXZ=             -4.0543  XZZ=             -6.8199  YZZ=              0.1224
  YYZ=              3.4838  XYZ=             -9.1706
 Hexadecapole moment (field-independent basis, Debye-Ang**3):
 XXXX=          -5726.7221 YYYY=          -1140.2498 ZZZZ=           -481.8773 XXXY=           -135.5339
 XXXZ=             30.5589 YYYX=             37.3836 YYYZ=             47.7091 ZZZX=             15.9426
 ZZZY=             17.4153 XXYY=           -997.2345 XXZZ=           -944.6254 YYZZ=           -261.5228
 XXYZ=             30.2645 YYXZ=             10.7268 ZZXY=             23.3752
 N-N= 1.592080189264D+03 E-N=-5.370327110497D+03  KE= 9.314158810950D+02
  Exact polarizability:   0.000   0.000   0.000   0.000   0.000   0.000
 Approx polarizability: 237.525  -6.371 206.427   1.049   5.256 155.739
 Calling FoFJK, ICntrl=    100147 FMM=F ISym2X=0 I1Cent= 0 IOpClX= 0 NMat=1 NMatS=1 NMatT=0.
 ***** Axes restored to original set *****
 -------------------------------------------------------------------
 Center     Atomic                   Forces (Hartrees/Bohr)
 Number     Number              X              Y              Z
 -------------------------------------------------------------------
      1        6          -0.016241476   -0.023746489    0.006094128
      2        6          -0.023666030    0.044226865   -0.002001028
      3        6           0.046195774    0.030560465   -0.005700368
      4        1           0.005880744   -0.000671683    0.004574897
      5        1          -0.005046093    0.003004386    0.004216086
      6        6          -0.003653171   -0.027070013   -0.009342082
      7        1           0.005797886    0.001778918   -0.016965290
      8        8           0.023522895    0.082906685   -0.105877152
      9        6           0.052862248   -0.040599303    0.060385541
     10        1          -0.006508796   -0.032177754    0.020966958
     11        6          -0.046944014    0.016373320    0.042617911
     12        1          -0.011726036   -0.031280478    0.019241227
     13        6          -0.029973761   -0.001242554    0.013167397
     14        6          -0.000256101    0.003958483    0.020813169
     15        7           0.003631227   -0.008744018   -0.007439823
     16        1          -0.000133574    0.000361807   -0.000963506
     17        8           0.003976259   -0.020441131   -0.008510614
     18        8           0.006079398   -0.005124762   -0.007342097
     19        6           0.014330486    0.000907917   -0.017826256
     20        1          -0.000073591    0.003068757   -0.006065290
     21        1          -0.000402867    0.000697257   -0.002636522
     22        8          -0.018920006    0.001154583    0.002352274
     23        6           0.003566290   -0.015562497    0.012125332
     24        1          -0.003173847    0.002170363   -0.001654999
     25        6          -0.002334156    0.005856795   -0.002579172
     26        1           0.000793373   -0.001292603    0.005271292
     27        1          -0.003967008   -0.002546155   -0.004762729
     28        8          -0.004826396    0.008953177   -0.015164196
     29        1           0.010516009    0.003420328    0.004440600
     30        6          -0.000554362   -0.000676840   -0.003396878
     31        1          -0.001742292    0.002997618   -0.000579548
     32        1           0.001032277   -0.002904458    0.000252428
     33        6          -0.001123522    0.000261323   -0.001087062
     34        1           0.003378251   -0.005435422    0.003332460
[...]
 080494,0.00040021,-0.00029640,0.00012633,-0.00007497,-0.09285845,0.090
 25567,-0.16390405,0.10243617,-0.10052886,0.17856113,0.00019454,-0.0000
 7459,-0.00004922,-0.00007656,-0.00000948,0.00003528,0.00001049,0.00003
 472,-0.00000339,0.00000893,-0.00003470,-0.00001722,-0.00000850,0.00000
 034,0.00000031,-0.00003553,-0.00002056,-0.00000516,-0.00000189,0.00000
 868,0.00000085,-0.00010156,0.00003185,0.00000888,0.00001429,-0.0000082
 2,0.00002980,0.00007223,-0.00000325,-0.00003463,-0.00002999,-0.0000401
 7,-0.00005676,-0.00000744,-0.00000339,-0.00000472,0.00009229,0.0000507
 0,0.00009341,0.00019176,0.00006666,0.00013071,-0.00009880,-0.00001937,
 -0.00008364,-0.00000952,0.00002502,0.00002314,-0.00016204,-0.00012740,
 -0.00015381,-0.00009730,-0.00002157,-0.00006983,0.00066926,-0.00002506
 ,0.00028938,0.00000868,-0.00002323,-0.00002053,-0.00001982,0.00006437,
 0.00000761,-0.00049625,0.00006261,0.00049035,-0.00095472,-0.00327316,0
 .00042228,0.00003015,0.00015690,0.00025345,-0.01021041,0.01553153,0.00
 957918,0.00099269,-0.00027457,-0.00016813,-0.00008006,0.00026104,-0.00
 048194,-0.00171313,0.00029107,0.00146570,0.00044408,0.00028801,0.00023
 686,-0.10583616,0.09359357,0.06128574,-0.00850392,0.01157273,0.0081790
 0,0.11614623,-0.00010890,0.00002128,0.00005139,0.00006027,-0.00000035,
 -0.00003579,-0.00001804,-0.00000678,-0.00001213,-0.00001535,-0.0000000
 5,0.00001482,0.00000183,-0.00000353,0.00000137,0.00002139,0.00002406,0
 .00000274,-0.00000017,-0.00000674,0.00000083,0.00003942,0.00000519,-0.
 00002230,-0.00003109,0.00003599,0.00002572,0.00002566,-0.00000294,-0.0
 0000357,0.00002986,-0.00001560,0.00002174,0.00000392,0.00000519,0.0000
 0199,-0.00003310,-0.00002681,-0.00004656,0.00000990,-0.00007592,-0.000
 05976,0.00001551,0.00001560,0.00002706,0.00000116,-0.00001040,-0.00000
 870,-0.00002059,0.00003598,-0.00001346,0.00003242,0.00001102,0.0000268
 9,-0.00030054,-0.00001057,-0.00008906,-0.00008188,0.00004168,-0.000045
 65,0.00000736,-0.00003804,0.00003317,0.00047421,0.00040805,-0.00071481
 ,-0.00146702,-0.00214875,0.00192353,0.00000889,0.00010614,0.00018252,-
 0.00845148,0.01080922,0.00917682,0.00035604,0.00068356,-0.00045748,0.0
 0047951,0.00046134,-0.00057721,-0.00092664,0.00044897,0.00082887,0.000
 15391,0.00006914,0.00006700,0.09385298,-0.18986693,-0.09558678,0.00728
 249,-0.01194907,-0.00767502,-0.09669713,0.20675842,0.00002795,0.000037
 96,0.00004719,-0.00004048,0.00000909,-0.00000061,0.00000485,-0.0000010
 0,0.00002689,-0.00000872,0.00001567,0.00000196,-0.00000184,0.00000362,
 -0.00000265,-0.00000878,-0.00001581,0.00000065,0.00000050,0.00000321,-
 0.00000058,0.00005346,-0.00002312,0.00003363,0.00002856,-0.00003916,-0
 .00005031,-0.00007552,0.00000272,0.00002746,-0.00000772,0.00005582,0.0
 0002514,0.,-0.00000637,0.00000216,-0.00005748,-0.00000471,-0.00002856,
 -0.00020255,0.00006456,-0.00003493,0.00008617,-0.00000963,0.00004182,0
 .00000196,-0.00001035,-0.00000868,0.00020802,0.00003535,0.00011644,0.0
 0005588,0.00000485,0.00003164,-0.00002575,-0.00000124,-0.00023500,0.00
 013325,-0.00010856,0.00006821,0.00001762,0.00008204,-0.00005894,-0.000
 22232,-0.00030389,0.00101861,0.00125248,0.00499527,-0.00088359,-0.0002
 2413,-0.00008923,0.00016783,0.01162839,-0.01706916,-0.01296030,-0.0006
 0502,-0.00040507,0.00028234,-0.00016765,0.00026275,0.00073117,0.001989
 70,-0.00067235,-0.00149288,-0.00044345,-0.00028926,-0.00021043,0.05989
 065,-0.09414318,-0.10931475,-0.00998045,0.01540423,0.01060912,-0.06773
 339,0.10326021,0.11851324,0.00000360,-0.00000098,-0.00000449,0.0000017
 2,-0.00001380,-0.00002451,-0.00002260,0.00001242,-0.00000588,-0.000015
 15,-0.00000893,0.00000942,-0.00000300,-0.00000277,0.00000108,0.0000065
 6,0.00002012,0.00000077,-0.00000050,-0.00000177,0.00000324,0.00000650,
 0.00001731,0.00000660,-0.00002563,0.00003566,0.00001372,-0.00000602,-0
 .00000115,0.00000593,0.00001457,-0.00001123,0.00002147,-0.00000014,0.0
 0000288,-0.00000088,0.00002755,-0.00003269,-0.00001969,0.00016339,-0.0
 0012100,-0.00002526,-0.00006233,0.00003250,-0.00000837,-0.00000165,0.0
 0000155,0.00000713,-0.00018070,0.00009031,0.00004813,-0.00001531,0.000
 01026,-0.00000116,-0.00029992,-0.00001964,0.00000280,-0.00002441,0.000
 02493,-0.00003350,0.00009163,-0.00000741,0.00004607,-0.00047407,0.0000
 6265,-0.00068052,-0.00033171,-0.00002651,0.00030537,-0.00055415,-0.000
 45498,0.00004764,-0.01878227,-0.01515866,-0.00826711,0.00177487,0.0010
 4371,-0.00049060,-0.00151047,-0.00118652,0.00254262,0.00046848,-0.0001
 5804,-0.00030224,0.00007227,0.00000072,-0.00002554,-0.13803659,-0.0551
 6002,-0.03825317,-0.01264663,-0.01235942,-0.00754266,0.01055413,0.0090
 5006,0.00643496,0.53836907,-0.00008330,-0.00002996,-0.00008785,0.00004
 647,0.00001553,0.00002901,0.00001722,-0.00002026,-0.00002030,0.0000405
 2,-0.00000894,-0.00001712,0.00000407,-0.00000127,0.00000158,-0.0000050
 4,-0.00000122,-0.00000613,-0.00000186,-0.00000135,-0.00000133,-0.00007
 287,0.00000797,-0.00003803,0.00000659,-0.00000148,0.00000984,0.0000184
 9,0.00000690,-0.00000805,-0.00000971,-0.00001661,-0.00002502,0.0000006
 9,0.00000325,-0.00000187,0.00002921,0.00000955,0.00003120,0.00009833,-
 0.00003262,0.00002570,-0.00004265,0.00000751,-0.00003534,-0.00000416,0
 .00000052,0.00001062,-0.00011889,-0.00000558,-0.00007086,-0.00003028,-
 0.00000416,-0.00002191,0.00020233,-0.00005603,0.00047945,-0.00013743,0
 .00019203,-0.00008539,-0.00021191,-0.00009203,0.00002028,-0.00025233,-
 0.00061743,-0.00077444,0.00105460,0.00224994,0.00171004,-0.00112789,-0
 .00000377,-0.00042275,-0.01222663,-0.00949555,-0.00418760,0.00024944,0
 .00014737,-0.00111884,-0.00084158,0.00021397,0.00139750,-0.00004154,-0
 .00093942,-0.00043514,-0.00007028,0.00009728,0.00010957,-0.05427596,-0
 .12865894,-0.03671990,0.01104337,0.01007640,0.00675137,-0.01913733,-0.
 01541083,-0.01021303,-0.03401438,0.54187378,-0.00003851,0.00001648,-0.
 00009278,-0.00004687,0.00002332,0.00004420,0.00004693,-0.00002087,0.00
 004395,0.00001007,0.00002530,-0.00000764,0.00000351,0.00000785,-0.0000
 0364,-0.00002385,-0.00006096,-0.00001473,0.00000065,0.00000941,-0.0000
 0356,0.00000673,-0.00003111,0.00004651,0.00007988,-0.00013201,-0.00006
 579,-0.00003720,0.00000127,0.00001733,-0.00004197,0.00007116,-0.000035
 35,0.00000195,-0.00001488,0.00000409,-0.00015011,0.00010420,0.00003264
 ,-0.00058772,0.00041484,0.00005154,0.00026021,-0.00012210,0.00005717,-
 0.00000257,-0.00000306,-0.00002131,0.00068738,-0.00022866,-0.00006287,
 0.00010316,-0.00002937,0.00002969,-0.00012540,0.00010332,0.00008545,0.
 00008704,-0.00010871,0.00007265,-0.00005028,0.00009021,-0.00014749,-0.
 00020815,-0.00097296,0.00007408,0.00026911,0.00186082,0.00032609,0.000
 80250,0.00017067,-0.00013596,0.01532709,0.01430451,0.01240040,0.000621
 22,0.00019981,0.00067425,0.00417423,0.00272360,-0.00344070,0.00048669,
 -0.00041108,-0.00019930,-0.00045722,0.00003723,0.00011919,-0.04026835,
 -0.03636972,-0.10480728,-0.01547490,-0.01541159,-0.00984126,-0.0117867
 9,-0.00878301,-0.00669718,-0.03087891,-0.02464469,0.56060798,0.0000489
 0,-0.00000445,-0.00004397,-0.00004764,-0.00000038,0.00001899,0.0000092
 5,0.00000689,0.00001922,0.00000030,0.00000424,-0.00001158,-0.00000339,
 0.00000336,-0.00000227,-0.00001104,-0.00001925,-0.00001204,0.00000011,
 0.00000541,-0.00000058,-0.00001362,0.00000202,0.00004611,0.00001514,-0
 .00002819,-0.00001573,-0.00001561,0.00000034,-0.00000009,-0.00001719,0
 .00002293,-0.00000416,-0.00000327,-0.00000438,-0.00000082,0.00000676,0
 .00000941,0.00000847,-0.00006970,0.00006875,0.00001057,0.00001888,-0.0
 0001358,0.00001215,0.00000595,0.00000598,-0.00000746,0.00009254,-0.000
 03175,0.00005406,-0.00000416,-0.00000423,-0.00000031,0.00004139,-0.000
 06506,0.00004264,0.00006175,-0.00006356,0.00005580,0.00003870,0.000039
 17,-0.00005415,-0.00007693,-0.00038879,0.00043809,-0.00049540,0.000367
 80,-0.00082366,-0.00021636,0.00028568,0.00024689,0.00106977,0.00154137
 ,-0.00049979,-0.00014689,-0.00062827,0.00052726,0.00040971,-0.00009660
 ,0.00016244,0.00020734,0.00007308,0.00026198,-0.00003693,-0.00003533,-
 0.00009070,-0.01198286,0.01123441,-0.01558633,-0.00248228,-0.00354619,
 -0.00213220,0.00068080,-0.00020964,0.00040183,-0.11161969,0.06361632,-
 0.09620337,0.12050079,0.00001186,0.00002850,0.00006364,0.00000463,0.00
 000101,-0.00001464,-0.00001177,0.00000555,-0.00000260,-0.00000863,-0.0
 0000179,0.00001734,-0.00000011,-0.00000119,0.00000152,0.00000357,0.000
 00685,0.00000912,-0.00000019,-0.00000256,0.00000074,0.00002815,-0.0000
 0420,-0.00001436,-0.00000386,0.00000590,0.00000319,-0.00000009,0.00000
 038,0.00000451,0.00000849,-0.00000139,0.00000824,0.00000177,0.00000069
 ,0.00000142,-0.00001681,-0.00000395,-0.00001269,-0.00001946,-0.0000040
 2,-0.00001660,0.00001524,-0.00000130,0.00000877,-0.00000031,-0.0000025
 6,-0.00000174,0.00001853,-0.00000355,-0.00000904,0.00001527,0.00000245
 ,0.00000785,-0.00012012,-0.00001336,-0.00016811,0.00000902,-0.00006030
 ,-0.00002351,0.00005188,0.00005427,-0.00001189,0.00029088,0.00019411,-
 0.00009050,0.00015787,-0.00001602,0.00067235,0.00000494,-0.00013815,-0
 .00010587,0.00050473,0.00155513,-0.00052403,0.00046318,-0.00020637,0.0
 0034752,0.00030859,-0.00000863,-0.00014423,-0.00003161,-0.00004536,-0.
 00011843,-0.00003402,0.00001554,0.00002612,-0.01132836,0.01017519,-0.0
 1572410,-0.00355802,-0.00195933,-0.00213055,0.00068511,0.00078720,0.00
 012130,0.06445383,-0.10702403,0.09323195,-0.06723193,0.11283045,0.0000
 8583,-0.00001909,0.00000255,-0.00003612,-0.00000606,0.00001267,-0.0000
 0022,0.00001359,0.00000193,0.00000069,-0.00000741,-0.00000455,-0.00000
 313,0.00000068,-0.00000056,-0.00000114,-0.00000564,-0.00000545,0.00000
 129,0.00000249,-0.00000096,-0.00001460,0.00000603,0.00002447,-0.000001
 97,0.00000613,0.00000821,0.00000943,-0.00000015,-0.00000815,-0.0000080
 4,-0.00000728,-0.00000649,-0.00000332,-0.00000039,-0.00000179,0.000057
 85,-0.00000672,0.00001666,0.00008808,-0.00001186,0.00001550,-0.0000541
 0,0.00000676,-0.00000969,0.00000731,0.00001033,-0.00000142,-0.00007717
 ,-0.00000662,0.00000662,-0.00004460,-0.00000126,-0.00001836,0.00010394
 ,-0.00002439,-0.00010491,0.00001579,-0.00005180,0.00001476,0.00004229,
 0.00002353,-0.00002522,0.00015164,0.00005286,0.00016594,-0.00000595,-0
 .00021696,0.00012948,-0.00023921,-0.00001592,-0.00000135,0.00123153,0.
 00023787,0.00091267,-0.00055594,-0.00032236,0.00052307,0.00020989,-0.0
 0014443,0.00003756,-0.00020859,0.00001359,0.00010527,0.00004920,0.0000
 2989,0.00000087,-0.00654223,0.00715506,-0.01055087,-0.00162748,-0.0025
 0618,-0.00030635,0.00026474,-0.00001691,-0.00017058,-0.09670263,0.0923
 1404,-0.18690384,0.10859352,-0.10002858,0.20107922,0.00007014,-0.00003
 275,-0.00003672,-0.00001385,-0.00000712,0.00000695,-0.00001478,0.00002
 529,-0.00002068,0.00001150,-0.00002468,-0.00000798,-0.00000593,-0.0000
 0382,0.00000341,-0.00000946,0.00001108,-0.00000181,-0.00000315,-0.0000
 0046,0.00000238,-0.00007981,0.00003886,-0.00000675,-0.00002397,0.00005
 591,0.00002924,0.00002801,-0.00000086,-0.00001385,0.00000112,-0.000038
 83,-0.00000482,-0.00000382,0.00000434,-0.00000319,0.00012854,-0.000039
 79,0.00002657,0.00032344,-0.00015210,0.00001989,-0.00015727,0.00004907
 ,-0.00004525,0.00000652,0.00000867,0.00001359,-0.00032198,0.00007308,0
 .00000188,-0.00009632,0.00000901,-0.00004490,0.00021391,-0.00010883,0.
 00028515,-0.00005183,0.00003377,-0.00004974,0.00001882,-0.00001081,-0.
 00000856,-0.00048815,0.00017004,-0.00014342,0.00084654,-0.00029932,-0.
 00059136,-0.00008090,0.00005087,-0.00010046,-0.00204205,-0.00208274,-0
 .00364367,0.00005767,-0.00014180,0.00009016,-0.00069989,-0.00062712,0.
 00101808,-0.00037483,-0.00000366,0.00020955,0.00021455,0.00006972,0.00
 001215,-0.01327958,-0.00518300,0.01580208,-0.00000116,0.00061153,0.000
 08108,0.00112353,0.00011387,-0.00009158,-0.16415894,-0.05613408,0.1239
 0146,0.01131235,0.00491165,-0.01150415,0.17681065,0.00003964,0.0000246
 3,0.00003874,-0.00001232,-0.00001029,-0.00000895,-0.00001211,0.0000110
 5,-0.00000671,-0.00000849,-0.00000249,0.00000056,-0.00000166,-0.000001
 12,0.00000023,0.00000560,0.00001388,0.00000521,0.00000083,-0.00000119,
 0.00000078,0.00000321,0.00000764,-0.00000166,-0.00002019,0.00003799,0.
 00001262,0.00000512,-0.00000238,-0.00000282,0.00000708,-0.00001698,0.0
 0000881,-0.00000186,0.00000323,-0.00000149,0.00006871,-0.00003506,-0.0
 0000189,0.00019568,-0.00012529,-0.00000621,-0.00009641,0.00003867,-0.0
 0002036,0.00000442,0.00000477,0.00000665,-0.00021538,0.00008064,0.0000
 4856,-0.00004785,0.00000853,-0.00001671,-0.00006976,-0.00003572,-0.000
 14715,0.00000761,0.00000328,0.00002412,0.00008159,0.00000479,0.0000458
 7,0.00017557,0.00042923,0.00004640,0.00008037,-0.00119017,-0.00084544,
 0.00027494,0.00016405,0.00037621,-0.00301652,-0.00195420,-0.00328665,0
 .00028675,0.00027543,-0.00026174,-0.00110224,-0.00035355,0.00086519,0.
 00000410,0.00045996,0.00031109,0.00021992,-0.00005815,-0.00011348,-0.0
 1213787,-0.00729982,0.01523470,0.00032085,0.00063462,-0.00026242,0.000
 55352,0.00025820,0.00060587,-0.05546248,-0.07083946,0.05801844,-0.0102
 6170,-0.00520044,0.00950459,0.06381100,0.07552132,-0.00004794,0.000034
 28,0.00004797,0.00001687,-0.00000123,-0.00002092,-0.00000503,-0.000009
 75,0.00000642,-0.00001434,0.00001445,0.00000623,0.00000231,0.00000095,
 -0.00000154,0.00000857,0.00000975,0.00000657,0.00000093,-0.00000164,0.
 00000020,0.00005316,-0.00001634,-0.00000648,-0.00000561,-0.00000160,-0
 .00000931,-0.00001808,0.00000020,0.00000740,0.00001108,0.00001387,0.00
 001850,0.00000182,0.00000067,0.00000133,-0.00005085,-0.00000685,-0.000
 03292,-0.00007023,-0.00001768,-0.00003615,0.00003964,0.00000407,0.0000
 1880,-0.00000319,-0.00000725,-0.00000333,0.00004473,0.00003270,0.00005
 032,0.00004348,0.00000439,0.00002574,-0.00014122,-0.00003566,-0.000141
 88,0.00002104,-0.00000049,0.00003075,0.00003507,-0.00001069,0.00002510
 ,0.00032799,0.00011954,0.00021427,-0.00062927,-0.00068250,-0.00064109,
 0.00011218,0.00027604,0.00042825,-0.00197244,-0.00171032,-0.00100164,-
 0.00005743,-0.00026770,0.00006810,-0.00045290,-0.00046483,0.00050047,0
 .00025542,0.00040567,0.00018947,0.00004241,-0.00010183,-0.00010987,-0.
 01142861,-0.00569508,0.01097732,0.00048638,0.00057018,0.00052947,0.000
 47466,0.00054723,0.00080610,0.12563918,0.05974793,-0.17557208,0.015144
 82,0.00539064,-0.01486967,-0.13409579,-0.06238951,0.18677396,-0.000110
 64,0.00009873,0.00019727,0.00005227,0.00000378,-0.00004143,-0.00001447
 ,-0.00001960,-0.00000501,-0.00001722,0.00002635,0.00003061,0.00000831,
 -0.00000003,-0.00000056,0.00002489,0.00002634,0.00002686,0.00000405,-0
 .00000758,-0.00000173,0.00012804,-0.00004378,-0.00004629,-0.00001516,0
 .00001063,-0.00000050,-0.00001362,0.00000171,0.00001292,0.00002616,0.0
 0000664,0.00002793,0.00000572,0.00000374,0.00000318,-0.00007241,-0.000
 01671,-0.00005241,-0.00008230,-0.00004954,-0.00006294,0.00005338,0.000
 00642,0.00003190,-0.00000247,-0.00001295,-0.00000676,0.00004671,0.0000
 4760,0.00001034,0.00006298,0.00000842,0.00003840,-0.00041828,0.0001926
 0,-0.00068914,0.00000609,-0.00004457,0.00004314,0.00016248,0.00002205,
 0.00010667,-0.00021834,0.00030904,-0.00013340,-0.00048394,-0.00138998,
 0.00201746,-0.00101589,-0.00054422,0.00059402,0.00104395,0.00054368,0.
 00001659,-0.00009065,0.00001536,0.00003392,0.00001624,0.00021299,-0.00
 008417,0.00013224,0.00027742,-0.00029690,-0.00002897,-0.00005806,-0.00
 002666,0.01131195,-0.01931058,-0.00963703,0.00102926,0.00064389,0.0002
 6746,-0.00279048,-0.00365907,-0.00231941,-0.10278247,0.10241247,0.0495
 1237,-0.00727749,0.01041607,0.00671755,-0.00925961,0.01632033,0.006231
 21,0.11057971,-0.00001511,0.00008369,0.00015011,0.00001292,-0.00000509
 ,-0.00003607,-0.00001340,-0.00000869,0.00000722,-0.00002258,0.00002670
 ,0.00001289,0.00000235,0.00000012,-0.00000188,0.00002246,0.00001662,0.
 00001728,0.00000380,-0.00000513,-0.00000086,0.00011530,-0.00003274,-0.
 00000852,-0.00001917,0.00001745,-0.00000939,-0.00002790,-0.00000315,0.
 00001466,0.00002175,0.00001908,0.00003576,0.00000299,0.00000182,0.0000
 0241,-0.00004650,-0.00003682,-0.00006013,-0.00005799,-0.00006897,-0.00
 007536,0.00003664,0.00001984,0.00004266,0.00000334,-0.00001248,-0.0000
 1070,0.00004648,0.00009072,0.00010006,0.00005029,0.00001452,0.00003922
 ,-0.00030898,-0.00009247,-0.00054965,0.00005902,-0.00007148,0.00007815
 ,0.00008702,0.00004776,0.00003092,0.00087289,0.00046850,0.00043999,-0.
 00109296,-0.00165300,-0.00032892,-0.00026773,0.00016100,0.00109421,0.0
 0092239,0.00028534,-0.00034557,-0.00002356,0.00006137,-0.00002800,-0.0
 0015985,0.00025242,0.00009347,0.00046182,0.00079081,0.00022824,0.00009
 879,-0.00020790,-0.00018417,0.00968917,-0.01575365,-0.00751270,-0.0000
 5250,0.00101780,0.00020998,-0.00348527,-0.00141293,-0.00155940,0.09934
 349,-0.22164107,-0.08406960,0.00534616,-0.01096474,-0.00597741,-0.0051
 5597,0.00914439,0.00424840,-0.10644958,0.23945033,-0.00001053,0.000026
 09,0.00008178,0.00003323,0.00000161,-0.00002039,-0.00002336,0.00000373
 ,-0.00002171,0.00000016,-0.00000540,0.00002087,0.00000047,-0.00000424,
 0.00000339,0.00001221,0.00002449,0.00001250,-0.00000057,-0.00000752,0.
 00000068,0.00002297,0.00000256,-0.00003602,-0.00002732,0.00004425,0.00
 002125,0.00001156,0.00000054,0.00000127,0.00002278,-0.00002071,0.00001
 762,0.00000278,0.00000556,0.00000104,0.00001691,-0.00003592,-0.0000268
 0,0.00010664,-0.00011220,-0.00004440,-0.00003977,0.00003040,0.00000380
 ,0.00000254,-0.00000618,0.00000012,-0.00012567,0.00006332,0.00000413,-
 0.00000503,0.00001243,0.00000515,-0.00020226,-0.00006226,-0.00018243,-
 0.00004477,-0.00003320,-0.00004299,0.00004970,0.00001320,0.00001279,0.
 00020700,0.00064875,-0.00056524,0.00110784,-0.00047520,0.00050634,0.00
 086764,0.00067836,-0.00059341,-0.00017351,0.00086197,0.00010150,-0.000
 00298,0.00002616,0.00004223,-0.00001033,-0.00009354,-0.00003799,-0.000
 24526,0.00024516,0.00000860,0.00009234,-0.00001242,-0.00000389,0.00648
 808,-0.01147110,-0.00685857,0.00049774,0.00004307,-0.00000243,-0.00260
 218,-0.00204570,-0.00040162,0.04813100,-0.08370254,-0.08663446,-0.0105
 5565,0.01922522,0.00993276,0.00891105,-0.01778143,-0.00828588,-0.05251
 547,0.09391271,0.09298038\\0.00000439,0.00000584,-0.00000350,-0.000001
 15,-0.00000388,0.00000407,0.00000327,0.00000281,0.00000123,0.00000070,
 -0.00000063,0.00000074,0.00000035,-0.00000023,0.00000186,-0.00000208,0
 .00000694,-0.00000047,0.00000007,0.00000212,0.00000060,0.00000093,-0.0
 0000242,0.00000198,0.00000410,-0.00000010,-0.00000318,-0.00000250,-0.0
 0000190,0.00000076,-0.00000684,-0.00000481,0.00000493,-0.00000025,-0.0
 0000344,-0.00000200,0.00000068,-0.00000035,-0.00000310,0.00000119,0.00
 000205,-0.00000296,-0.00000130,-0.00000011,-0.00000125,0.00000025,0.00
 000252,-0.00000344,-0.00000076,0.00000138,-0.00000167,0.00000067,0.000
 00122,-0.00000109,0.00000476,-0.00000034,0.00000184,0.00000048,0.00000
 143,0.00000157,-0.00000205,-0.00000277,-0.00000372,-0.00000170,0.00000
 047,0.00000471,-0.00000600,-0.00000780,0.00000128,-0.00000074,-0.00000
 332,0.00000177,-0.00000213,-0.00000026,-0.00000065,-0.00000009,-0.0000
 0091,-0.00000156,-0.00000076,0.00000029,-0.00000050,0.00000013,0.00000
 501,-0.00000099,0.00000416,0.00000117,-0.00000352,0.00000052,0.0000010
 0,0.00000009,0.00000077,0.00000035,-0.00000031,0.00000083,0.00000063,0
 .00000035,-0.00000056,-0.00000047,0.00000213,0.00000034,-0.00000161,0.
 00000080,-0.00000007,0.00000062,0.00000171,0.00000040,-0.00000050,0.00
 000150\\\@


 WE MIGHT AS WELL ATTEMPT TO INTRODUCE A NEW PLANET 
 INTO THE SOLAR SYSTEM, OR TO ANNIHILATE ONE ALREADYIN EXISTENCE, 
 AS TO CREATE OR DESTROY A PARTICLE OF HYDROGEN.
 ALL THE CHANGES WE CAN PRODUCE CONSIST IN SEPARATING PARTICLES
 THAT ARE IN A STATE OF ... COMBINATION, AND JOINING 
 THOSE THAT WERE PREVIOUSLY AT A DISTANCE.

                                    -- JOHN DALTON, 1810
 Job cpu time:       0 days  2 hours 42 minutes 54.4 seconds.
 Elapsed time:       0 days  0 hours 20 minutes 41.4 seconds.
 File lengths (MBytes):  RWF=    508 Int=      0 D2E=      0 Chk=     16 Scr=      1
 Normal termination of Gaussian 16 at Wed May 15 14:26:16 2024.
