 Entering Gaussian System, Link 0=g16
 Initial command:
 /apps/brussel/RL8/zen4/software/Gaussian/G16.B.01/g16/l1.exe "/tmp/10565124/Gau-394437.inp" -scrdir="/tmp/10565124/"
 Entering Link 1 = /apps/brussel/RL8/zen4/software/Gaussian/G16.B.01/g16/l1.exe PID=    394439.
  
 Copyright (c) 1988-2017, Gaussian, Inc.  All Rights Reserved.
  
 This is part of the Gaussian(R) 16 program.  It is based on
 the Gaussian(R) 09 system (copyright 2009, Gaussian, Inc.),
 the Gaussian(R) 03 system (copyright 2003, Gaussian, Inc.),
 the Gaussian(R) 98 system (copyright 1998, Gaussian, Inc.),
 the Gaussian(R) 94 system (copyright 1995, Gaussian, Inc.),
 the Gaussian 92(TM) system (copyright 1992, Gaussian, Inc.),
 the Gaussian 90(TM) system (copyright 1990, Gaussian, Inc.),
 the Gaussian 88(TM) system (copyright 1988, Gaussian, Inc.),
 the Gaussian 86(TM) system (copyright 1986, Carnegie Mellon
 University), and the Gaussian 82(TM) system (copyright 1983,
 Carnegie Mellon University). Gaussian is a federally registered
 trademark of Gaussian, Inc.
  
 This software contains proprietary and confidential information,
 including trade secrets, belonging to Gaussian, Inc.
  
 This software is provided under written license and may be
 used, copied, transmitted, or stored only in accord with that
 written license.
  
 The following legend is applicable only to US Government
 contracts under FAR:
  
                    RESTRICTED RIGHTS LEGEND
  
 Use, reproduction and disclosure by the US Government is
 subject to restrictions as set forth in subparagraphs (a)
 and (c) of the Commercial Computer Software - Restricted
 Rights clause in FAR 52.227-19.
  
 Gaussian, Inc.
 340 Quinnipiac St., Bldg. 40, Wallingford CT 06492
  
  
 ---------------------------------------------------------------
 Warning -- This program may not be used in any manner that
 competes with the business of Gaussian, Inc. or will provide
 assistance to any competitor of Gaussian, Inc.  The licensee
 of this program is prohibited from giving any competitor of
 Gaussian, Inc. access to this program.  By using this program,
 the user acknowledges that Gaussian, Inc. is engaged in the
 business of creating and licensing software in the field of
 computational chemistry and represents and warrants to the
 licensee that it is not a competitor of Gaussian, Inc. and that
 it will not use this program in any manner prohibited above.
 ---------------------------------------------------------------
  

 Cite this work as:
 Gaussian 16, Revision B.01,
 M. J. Frisch, G. W. Trucks, H. B. Schlegel, G. E. Scuseria, 
 M. A. Robb, J. R. Cheeseman, G. Scalmani, V. Barone, 
 G. A. Petersson, H. Nakatsuji, X. Li, M. Caricato, A. V. Marenich, 
 J. Bloino, B. G. Janesko, R. Gomperts, B. Mennucci, H. P. Hratchian, 
 J. V. Ortiz, A. F. Izmaylov, J. L. Sonnenberg, D. Williams-Young, 
 F. Ding, F. Lipparini, F. Egidi, J. Goings, B. Peng, A. Petrone, 
 T. Henderson, D. Ranasinghe, V. G. Zakrzewski, J. Gao, N. Rega, 
 G. Zheng, W. Liang, M. Hada, M. Ehara, K. Toyota, R. Fukuda, 
 J. Hasegawa, M. Ishida, T. Nakajima, Y. Honda, O. Kitao, H. Nakai, 
 T. Vreven, K. Throssell, J. A. Montgomery, Jr., J. E. Peralta, 
 F. Ogliaro, M. J. Bearpark, J. J. Heyd, E. N. Brothers, K. N. Kudin, 
 V. N. Staroverov, T. A. Keith, R. Kobayashi, J. Normand, 
 K. Raghavachari, A. P. Rendell, J. C. Burant, S. S. Iyengar, 
 J. Tomasi, M. Cossi, J. M. Millam, M. Klene, C. Adamo, R. Cammi, 
 J. W. Ochterski, R. L. Martin, K. Morokuma, O. Farkas, 
 J. B. Foresman, and D. J. Fox, Gaussian, Inc., Wallingford CT, 2016.
 
 ******************************************
 Gaussian 16:  ES64L-G16RevB.01 20-Dec-2017
                28-Mar-2025 
 ******************************************
 %chk=TSrad_sscan.chk
 %mem=20GB
 %nprocshared=16
 Will use up to   16 processors via shared memory.
 ----------------------------------------------------------------------
 # opt=(calcall,ts,noeigentest) freq cc-pvdz geom=connectivity empirica
 ldispersion=gd3 m062x
 ----------------------------------------------------------------------
 1/5=1,10=4,11=1,18=20,26=3,38=1,57=2/1,3;
 2/9=110,12=2,17=6,18=5,40=1/2;
 3/5=16,11=2,25=1,30=1,71=2,74=-55,124=31,140=1/1,2,3;
 4//1;
 5/5=2,38=5/2;
 8/6=4,10=90,11=11/1;
 11/6=1,8=1,9=11,15=111,16=1/1,2,10;
 10/6=1/2;
 6/7=2,8=2,9=2,10=2,18=1,28=1/1;
 7/10=1,25=1/1,2,3,16;
 1/5=1,10=4,11=1,18=20,26=3/3(3);
 2/9=110/2;
 7/8=1,9=1,25=1,44=-1/16;
 99//99;
 2/9=110/2;
 3/5=16,11=2,25=1,30=1,71=2,74=-55,124=31,140=1/1,2,3;
 4/5=5,16=3,69=1/1;
 5/5=2,38=5/2;
 8/6=4,10=90,11=11/1;
 11/6=1,8=1,9=11,15=111,16=1/1,2,10;
 10/6=1/2;
 7/10=1,25=1/1,2,3,16;
 1/5=1,10=4,11=1,18=20,26=3/3(-8);
 2/9=110/2;
 6/7=2,8=2,9=2,10=2,18=1,19=2,28=1/1;
 7/8=1,9=1,25=1,44=-1/16;
 99//99;
 -------------------
 Title Card Required
 -------------------
 Symbolic Z-matrix:
 Charge =  0 Multiplicity = 2
 C                    -2.27089   2.62036  -0.27777 
 C                    -2.82833   1.46482  -0.81495 
 C                    -2.01458   0.34024  -0.93397 
 C                    -0.65959   0.36478  -0.5177 
 C                    -0.10585   1.53527   0.02322 
 C                    -0.91946   2.65659   0.13698 
 H                    -2.89871   3.50388  -0.18063 
 H                    -3.87294   1.45052  -1.1272 
 H                     0.93606   1.58298   0.35123 
 C                    -0.11719  -0.94169  -0.7535 
 N                    -2.2765   -0.92087  -1.43267 
 H                    -3.19261  -1.26761  -1.67691 
 C                     1.28168  -1.3598   -0.44403 
 H                     1.52366  -1.05274   0.58634 
 H                     1.38312  -2.45415  -0.49642 
 C                     2.29426  -0.67945  -1.37923 
 H                     2.03872   0.3856   -1.46705 
 H                     2.25417  -1.11898  -2.38516 
 N                     3.65663  -0.75383  -0.88726 
 H                     4.2406   -1.5395   -1.14085 
 C                     4.04044   0.04699   0.14882 
 C                     5.43105  -0.20221   0.69304 
 H                     5.86079   0.75979   0.99398 
 H                     5.35218  -0.83229   1.59069 
 H                     6.08962  -0.69572  -0.03347 
 O                     3.30446   0.90435   0.60815 
 O                    -0.3304    3.76719   0.66783 
 C                    -1.12197   4.91961   0.81746 
 H                    -0.47111   5.68171   1.26037 
 H                    -1.49785   5.28565  -0.15332 
 H                    -1.97904   4.74139   1.48912 
 C                    -1.70066  -2.66239   0.80207 
 F                    -0.61118  -3.05651   1.45628 
 F                    -2.28113  -1.6681    1.45802 
 F                    -2.55222  -3.68666   0.70884 
 C                    -1.15964  -1.71456  -1.25051 
 H                    -1.11492  -2.70982  -1.68702 
 
 Add virtual bond connecting atoms C36        and C32        Dist= 4.39D+00.

 GradGradGradGradGradGradGradGradGradGradGradGradGradGradGradGradGradGrad
 Berny optimization.
 Initialization pass.
                           ----------------------------
                           !    Initial Parameters    !
                           ! (Angstroms and Degrees)  !
 --------------------------                            --------------------------
 ! Name  Definition              Value          Derivative Info.                !
 --------------------------------------------------------------------------------
 ! R1    R(1,2)                  1.3909         calculate D2E/DX2 analytically  !
 ! R2    R(1,6)                  1.4141         calculate D2E/DX2 analytically  !
 ! R3    R(1,7)                  1.0882         calculate D2E/DX2 analytically  !
 ! R4    R(2,3)                  1.3932         calculate D2E/DX2 analytically  !
 ! R5    R(2,8)                  1.0904         calculate D2E/DX2 analytically  !
 ! R6    R(3,4)                  1.4177         calculate D2E/DX2 analytically  !
 ! R7    R(3,11)                 1.3812         calculate D2E/DX2 analytically  !
 ! R8    R(4,5)                  1.4033         calculate D2E/DX2 analytically  !
 ! R9    R(4,10)                 1.4341         calculate D2E/DX2 analytically  !
 ! R10   R(5,6)                  1.3901         calculate D2E/DX2 analytically  !
 ! R11   R(5,9)                  1.0934         calculate D2E/DX2 analytically  !
 ! R12   R(6,27)                 1.3646         calculate D2E/DX2 analytically  !
 ! R13   R(10,13)                1.4924         calculate D2E/DX2 analytically  !
 ! R14   R(10,36)                1.3896         calculate D2E/DX2 analytically  !
 ! R15   R(11,12)                1.0095         calculate D2E/DX2 analytically  !
 ! R16   R(11,36)                1.3822         calculate D2E/DX2 analytically  !
 ! R17   R(13,14)                1.102          calculate D2E/DX2 analytically  !
 ! R18   R(13,15)                1.1003         calculate D2E/DX2 analytically  !
 ! R19   R(13,16)                1.5371         calculate D2E/DX2 analytically  !
 ! R20   R(16,17)                1.0988         calculate D2E/DX2 analytically  !
 ! R21   R(16,18)                1.0985         calculate D2E/DX2 analytically  !
 ! R22   R(16,19)                1.4504         calculate D2E/DX2 analytically  !
 ! R23   R(19,20)                1.0112         calculate D2E/DX2 analytically  !
 ! R24   R(19,21)                1.3646         calculate D2E/DX2 analytically  !
 ! R25   R(21,22)                1.514          calculate D2E/DX2 analytically  !
 ! R26   R(21,26)                1.2197         calculate D2E/DX2 analytically  !
 ! R27   R(22,23)                1.0958         calculate D2E/DX2 analytically  !
 ! R28   R(22,24)                1.0995         calculate D2E/DX2 analytically  !
 ! R29   R(22,25)                1.0978         calculate D2E/DX2 analytically  !
 ! R30   R(27,28)                1.4061         calculate D2E/DX2 analytically  !
 ! R31   R(28,29)                1.0957         calculate D2E/DX2 analytically  !
 ! R32   R(28,30)                1.1035         calculate D2E/DX2 analytically  !
 ! R33   R(28,31)                1.1034         calculate D2E/DX2 analytically  !
 ! R34   R(32,33)                1.3305         calculate D2E/DX2 analytically  !
 ! R35   R(32,34)                1.3251         calculate D2E/DX2 analytically  !
 ! R36   R(32,35)                1.3353         calculate D2E/DX2 analytically  !
 ! R37   R(32,36)                2.3247         calculate D2E/DX2 analytically  !
 ! R38   R(36,37)                1.0877         calculate D2E/DX2 analytically  !
 ! A1    A(2,1,6)              121.1697         calculate D2E/DX2 analytically  !
 ! A2    A(2,1,7)              118.5404         calculate D2E/DX2 analytically  !
 ! A3    A(6,1,7)              120.2898         calculate D2E/DX2 analytically  !
 ! A4    A(1,2,3)              118.0029         calculate D2E/DX2 analytically  !
 ! A5    A(1,2,8)              120.3615         calculate D2E/DX2 analytically  !
 ! A6    A(3,2,8)              121.6353         calculate D2E/DX2 analytically  !
 ! A7    A(2,3,4)              121.2773         calculate D2E/DX2 analytically  !
 ! A8    A(2,3,11)             131.0792         calculate D2E/DX2 analytically  !
 ! A9    A(4,3,11)             107.6416         calculate D2E/DX2 analytically  !
 ! A10   A(3,4,5)              120.3155         calculate D2E/DX2 analytically  !
 ! A11   A(3,4,10)             107.3034         calculate D2E/DX2 analytically  !
 ! A12   A(5,4,10)             132.3764         calculate D2E/DX2 analytically  !
 ! A13   A(4,5,6)              118.2566         calculate D2E/DX2 analytically  !
 ! A14   A(4,5,9)              121.8747         calculate D2E/DX2 analytically  !
 ! A15   A(6,5,9)              119.8687         calculate D2E/DX2 analytically  !
 ! A16   A(1,6,5)              120.9774         calculate D2E/DX2 analytically  !
 ! A17   A(1,6,27)             123.1942         calculate D2E/DX2 analytically  !
 ! A18   A(5,6,27)             115.8283         calculate D2E/DX2 analytically  !
 ! A19   A(4,10,13)            125.1426         calculate D2E/DX2 analytically  !
 ! A20   A(4,10,36)            106.3651         calculate D2E/DX2 analytically  !
 ! A21   A(13,10,36)           128.4246         calculate D2E/DX2 analytically  !
 ! A22   A(3,11,12)            124.9627         calculate D2E/DX2 analytically  !
 ! A23   A(3,11,36)            108.8741         calculate D2E/DX2 analytically  !
 ! A24   A(12,11,36)           124.6048         calculate D2E/DX2 analytically  !
 ! A25   A(10,13,14)           108.7615         calculate D2E/DX2 analytically  !
 ! A26   A(10,13,15)           110.8043         calculate D2E/DX2 analytically  !
 ! A27   A(10,13,16)           111.5482         calculate D2E/DX2 analytically  !
 ! A28   A(14,13,15)           107.5417         calculate D2E/DX2 analytically  !
 ! A29   A(14,13,16)           107.5097         calculate D2E/DX2 analytically  !
 ! A30   A(15,13,16)           110.5183         calculate D2E/DX2 analytically  !
 ! A31   A(13,16,17)           108.9323         calculate D2E/DX2 analytically  !
 ! A32   A(13,16,18)           110.8553         calculate D2E/DX2 analytically  !
 ! A33   A(13,16,19)           112.936          calculate D2E/DX2 analytically  !
 ! A34   A(17,16,18)           107.8273         calculate D2E/DX2 analytically  !
 ! A35   A(17,16,19)           107.1731         calculate D2E/DX2 analytically  !
 ! A36   A(18,16,19)           108.9276         calculate D2E/DX2 analytically  !
 ! A37   A(16,19,20)           119.8158         calculate D2E/DX2 analytically  !
 ! A38   A(16,19,21)           119.4488         calculate D2E/DX2 analytically  !
 ! A39   A(20,19,21)           118.9427         calculate D2E/DX2 analytically  !
 ! A40   A(19,21,22)           115.7651         calculate D2E/DX2 analytically  !
 ! A41   A(19,21,26)           121.9195         calculate D2E/DX2 analytically  !
 ! A42   A(22,21,26)           122.3148         calculate D2E/DX2 analytically  !
 ! A43   A(21,22,23)           108.3278         calculate D2E/DX2 analytically  !
 ! A44   A(21,22,24)           108.7784         calculate D2E/DX2 analytically  !
 ! A45   A(21,22,25)           112.7768         calculate D2E/DX2 analytically  !
 ! A46   A(23,22,24)           107.8787         calculate D2E/DX2 analytically  !
 ! A47   A(23,22,25)           109.9474         calculate D2E/DX2 analytically  !
 ! A48   A(24,22,25)           109.0083         calculate D2E/DX2 analytically  !
 ! A49   A(6,27,28)            117.7366         calculate D2E/DX2 analytically  !
 ! A50   A(27,28,29)           106.1803         calculate D2E/DX2 analytically  !
 ! A51   A(27,28,30)           111.7163         calculate D2E/DX2 analytically  !
 ! A52   A(27,28,31)           111.6962         calculate D2E/DX2 analytically  !
 ! A53   A(29,28,30)           109.1005         calculate D2E/DX2 analytically  !
 ! A54   A(29,28,31)           109.129          calculate D2E/DX2 analytically  !
 ! A55   A(30,28,31)           108.9362         calculate D2E/DX2 analytically  !
 ! A56   A(33,32,34)           109.7288         calculate D2E/DX2 analytically  !
 ! A57   A(33,32,35)           109.2273         calculate D2E/DX2 analytically  !
 ! A58   A(33,32,36)           111.367          calculate D2E/DX2 analytically  !
 ! A59   A(34,32,35)           109.3162         calculate D2E/DX2 analytically  !
 ! A60   A(34,32,36)           103.4794         calculate D2E/DX2 analytically  !
 ! A61   A(35,32,36)           113.5491         calculate D2E/DX2 analytically  !
 ! A62   A(10,36,11)           109.5072         calculate D2E/DX2 analytically  !
 ! A63   A(10,36,32)            94.908          calculate D2E/DX2 analytically  !
 ! A64   A(10,36,37)           128.4332         calculate D2E/DX2 analytically  !
 ! A65   A(11,36,32)            99.3478         calculate D2E/DX2 analytically  !
 ! A66   A(11,36,37)           120.3813         calculate D2E/DX2 analytically  !
 ! A67   A(32,36,37)            89.4745         calculate D2E/DX2 analytically  !
 ! D1    D(6,1,2,3)             -0.0341         calculate D2E/DX2 analytically  !
 ! D2    D(6,1,2,8)            179.7798         calculate D2E/DX2 analytically  !
 ! D3    D(7,1,2,3)           -179.9885         calculate D2E/DX2 analytically  !
 ! D4    D(7,1,2,8)             -0.1746         calculate D2E/DX2 analytically  !
 ! D5    D(2,1,6,5)             -0.1523         calculate D2E/DX2 analytically  !
 ! D6    D(2,1,6,27)           179.9386         calculate D2E/DX2 analytically  !
 ! D7    D(7,1,6,5)            179.8014         calculate D2E/DX2 analytically  !
 ! D8    D(7,1,6,27)            -0.1078         calculate D2E/DX2 analytically  !
 ! D9    D(1,2,3,4)              0.2166         calculate D2E/DX2 analytically  !
 ! D10   D(1,2,3,11)          -179.2146         calculate D2E/DX2 analytically  !
 ! D11   D(8,2,3,4)           -179.5947         calculate D2E/DX2 analytically  !
 ! D12   D(8,2,3,11)             0.974          calculate D2E/DX2 analytically  !
 ! D13   D(2,3,4,5)             -0.219          calculate D2E/DX2 analytically  !
 ! D14   D(2,3,4,10)           179.0853         calculate D2E/DX2 analytically  !
 ! D15   D(11,3,4,5)           179.3311         calculate D2E/DX2 analytically  !
 ! D16   D(11,3,4,10)           -1.3646         calculate D2E/DX2 analytically  !
 ! D17   D(2,3,11,12)           -9.8453         calculate D2E/DX2 analytically  !
 ! D18   D(2,3,11,36)         -176.1104         calculate D2E/DX2 analytically  !
 ! D19   D(4,3,11,12)          170.6648         calculate D2E/DX2 analytically  !
 ! D20   D(4,3,11,36)            4.3997         calculate D2E/DX2 analytically  !
 ! D21   D(3,4,5,6)              0.0304         calculate D2E/DX2 analytically  !
 ! D22   D(3,4,5,9)           -179.9265         calculate D2E/DX2 analytically  !
 ! D23   D(10,4,5,6)          -179.0704         calculate D2E/DX2 analytically  !
 ! D24   D(10,4,5,9)             0.9727         calculate D2E/DX2 analytically  !
 ! D25   D(3,4,10,13)         -179.3401         calculate D2E/DX2 analytically  !
 ! D26   D(3,4,10,36)           -2.1233         calculate D2E/DX2 analytically  !
 ! D27   D(5,4,10,13)           -0.1531         calculate D2E/DX2 analytically  !
 ! D28   D(5,4,10,36)          177.0637         calculate D2E/DX2 analytically  !
 ! D29   D(4,5,6,1)              0.1505         calculate D2E/DX2 analytically  !
 ! D30   D(4,5,6,27)          -179.9339         calculate D2E/DX2 analytically  !
 ! D31   D(9,5,6,1)           -179.8917         calculate D2E/DX2 analytically  !
 ! D32   D(9,5,6,27)             0.0238         calculate D2E/DX2 analytically  !
 ! D33   D(1,6,27,28)            0.7293         calculate D2E/DX2 analytically  !
 ! D34   D(5,6,27,28)         -179.1842         calculate D2E/DX2 analytically  !
 ! D35   D(4,10,13,14)          48.8353         calculate D2E/DX2 analytically  !
 ! D36   D(4,10,13,15)         166.8421         calculate D2E/DX2 analytically  !
 ! D37   D(4,10,13,16)         -69.5735         calculate D2E/DX2 analytically  !
 ! D38   D(36,10,13,14)       -127.7554         calculate D2E/DX2 analytically  !
 ! D39   D(36,10,13,15)         -9.7486         calculate D2E/DX2 analytically  !
 ! D40   D(36,10,13,16)        113.8359         calculate D2E/DX2 analytically  !
 ! D41   D(4,10,36,11)           4.8777         calculate D2E/DX2 analytically  !
 ! D42   D(4,10,36,32)         -96.8566         calculate D2E/DX2 analytically  !
 ! D43   D(4,10,36,37)         169.9108         calculate D2E/DX2 analytically  !
 ! D44   D(13,10,36,11)       -178.0275         calculate D2E/DX2 analytically  !
 ! D45   D(13,10,36,32)         80.2382         calculate D2E/DX2 analytically  !
 ! D46   D(13,10,36,37)        -12.9944         calculate D2E/DX2 analytically  !
 ! D47   D(3,11,36,10)          -5.8778         calculate D2E/DX2 analytically  !
 ! D48   D(3,11,36,32)          92.7667         calculate D2E/DX2 analytically  !
 ! D49   D(3,11,36,37)        -172.3152         calculate D2E/DX2 analytically  !
 ! D50   D(12,11,36,10)       -172.2035         calculate D2E/DX2 analytically  !
 ! D51   D(12,11,36,32)        -73.559          calculate D2E/DX2 analytically  !
 ! D52   D(12,11,36,37)         21.359          calculate D2E/DX2 analytically  !
 ! D53   D(10,13,16,17)         44.7093         calculate D2E/DX2 analytically  !
 ! D54   D(10,13,16,18)        -73.7819         calculate D2E/DX2 analytically  !
 ! D55   D(10,13,16,19)        163.662          calculate D2E/DX2 analytically  !
 ! D56   D(14,13,16,17)        -74.4459         calculate D2E/DX2 analytically  !
 ! D57   D(14,13,16,18)        167.0629         calculate D2E/DX2 analytically  !
 ! D58   D(14,13,16,19)         44.5069         calculate D2E/DX2 analytically  !
 ! D59   D(15,13,16,17)        168.4556         calculate D2E/DX2 analytically  !
 ! D60   D(15,13,16,18)         49.9644         calculate D2E/DX2 analytically  !
 ! D61   D(15,13,16,19)        -72.5916         calculate D2E/DX2 analytically  !
 ! D62   D(13,16,19,20)         89.6661         calculate D2E/DX2 analytically  !
 ! D63   D(13,16,19,21)        -74.9302         calculate D2E/DX2 analytically  !
 ! D64   D(17,16,19,20)       -150.366          calculate D2E/DX2 analytically  !
 ! D65   D(17,16,19,21)         45.0376         calculate D2E/DX2 analytically  !
 ! D66   D(18,16,19,20)        -33.9603         calculate D2E/DX2 analytically  !
 ! D67   D(18,16,19,21)        161.4434         calculate D2E/DX2 analytically  !
 ! D68   D(16,19,21,22)        173.6728         calculate D2E/DX2 analytically  !
 ! D69   D(16,19,21,26)         -6.0277         calculate D2E/DX2 analytically  !
 ! D70   D(20,19,21,22)          8.9417         calculate D2E/DX2 analytically  !
 ! D71   D(20,19,21,26)       -170.7589         calculate D2E/DX2 analytically  !
 ! D72   D(19,21,22,23)        144.6604         calculate D2E/DX2 analytically  !
 ! D73   D(19,21,22,24)        -98.3249         calculate D2E/DX2 analytically  !
 ! D74   D(19,21,22,25)         22.7311         calculate D2E/DX2 analytically  !
 ! D75   D(26,21,22,23)        -35.6404         calculate D2E/DX2 analytically  !
 ! D76   D(26,21,22,24)         81.3744         calculate D2E/DX2 analytically  !
 ! D77   D(26,21,22,25)       -157.5696         calculate D2E/DX2 analytically  !
 ! D78   D(6,27,28,29)         179.596          calculate D2E/DX2 analytically  !
 ! D79   D(6,27,28,30)         -61.5674         calculate D2E/DX2 analytically  !
 ! D80   D(6,27,28,31)          60.736          calculate D2E/DX2 analytically  !
 ! D81   D(33,32,36,10)        -44.9595         calculate D2E/DX2 analytically  !
 ! D82   D(33,32,36,11)       -155.6794         calculate D2E/DX2 analytically  !
 ! D83   D(33,32,36,37)         83.5854         calculate D2E/DX2 analytically  !
 ! D84   D(34,32,36,10)         72.8496         calculate D2E/DX2 analytically  !
 ! D85   D(34,32,36,11)        -37.8703         calculate D2E/DX2 analytically  !
 ! D86   D(34,32,36,37)       -158.6054         calculate D2E/DX2 analytically  !
 ! D87   D(35,32,36,10)       -168.7571         calculate D2E/DX2 analytically  !
 ! D88   D(35,32,36,11)         80.523          calculate D2E/DX2 analytically  !
 ! D89   D(35,32,36,37)        -40.2121         calculate D2E/DX2 analytically  !
 --------------------------------------------------------------------------------
 Trust Radius=3.00D-01 FncErr=1.00D-07 GrdErr=1.00D-06 EigMax=2.50D+02 EigMin=1.00D-04
 Number of steps in this run=    204 maximum allowed number of steps=    222.
 Search for a saddle point of order  1.
 GradGradGradGradGradGradGradGradGradGradGradGradGradGradGradGradGradGrad

                          Input orientation:                          
 ---------------------------------------------------------------------
 Center     Atomic      Atomic             Coordinates (Angstroms)
 Number     Number       Type             X           Y           Z
 ---------------------------------------------------------------------
      1          6           0       -2.270894    2.620358   -0.277773
      2          6           0       -2.828329    1.464823   -0.814949
      3          6           0       -2.014585    0.340236   -0.933974
      4          6           0       -0.659585    0.364779   -0.517696
      5          6           0       -0.105846    1.535270    0.023224
      6          6           0       -0.919464    2.656588    0.136981
      7          1           0       -2.898710    3.503875   -0.180632
      8          1           0       -3.872944    1.450519   -1.127196
      9          1           0        0.936057    1.582983    0.351228
     10          6           0       -0.117187   -0.941694   -0.753501
     11          7           0       -2.276496   -0.920871   -1.432666
     12          1           0       -3.192606   -1.267613   -1.676908
     13          6           0        1.281677   -1.359797   -0.444025
     14          1           0        1.523663   -1.052738    0.586342
     15          1           0        1.383124   -2.454149   -0.496421
     16          6           0        2.294255   -0.679454   -1.379225
     17          1           0        2.038725    0.385598   -1.467053
     18          1           0        2.254172   -1.118980   -2.385156
     19          7           0        3.656630   -0.753828   -0.887255
     20          1           0        4.240600   -1.539495   -1.140849
     21          6           0        4.040440    0.046994    0.148818
     22          6           0        5.431046   -0.202209    0.693040
     23          1           0        5.860791    0.759786    0.993983
     24          1           0        5.352181   -0.832294    1.590693
     25          1           0        6.089621   -0.695718   -0.033472
     26          8           0        3.304461    0.904350    0.608147
     27          8           0       -0.330395    3.767190    0.667834
     28          6           0       -1.121970    4.919609    0.817463
     29          1           0       -0.471106    5.681707    1.260365
     30          1           0       -1.497847    5.285648   -0.153324
     31          1           0       -1.979037    4.741385    1.489120
     32          6           0       -1.700664   -2.662393    0.802068
     33          9           0       -0.611177   -3.056510    1.456275
     34          9           0       -2.281132   -1.668101    1.458023
     35          9           0       -2.552222   -3.686656    0.708844
     36          6           0       -1.159636   -1.714561   -1.250514
     37          1           0       -1.114923   -2.709822   -1.687017
 ---------------------------------------------------------------------
                    Distance matrix (angstroms):
                    1          2          3          4          5
     1  C    0.000000
     2  C    1.390882   0.000000
     3  C    2.386472   1.393213   0.000000
     4  C    2.782358   2.449879   1.417715   0.000000
     5  C    2.440379   2.849458   2.446961   1.403307   0.000000
     6  C    1.414106   2.443407   2.776999   2.397609   1.390061
     7  H    1.088206   2.136596   3.370135   3.870558   3.423018
     8  H    2.157917   1.090378   2.173376   3.446157   3.939756
     9  H    3.428750   3.942656   3.449993   2.187492   1.093355
    10  C    4.189628   3.625657   2.296962   1.434110   2.595916
    11  N    3.724797   2.525397   1.381189   2.259307   3.586637
    12  H    4.233610   2.888231   2.127172   3.228726   4.502742
    13  C    5.337606   5.000821   3.741057   2.597708   3.244219
    14  H    5.351354   5.219345   4.095233   2.827512   3.109692
    15  H    6.257018   5.761609   4.420912   3.481303   4.289817
    16  C    5.739559   5.581863   4.450182   3.249281   3.554202
    17  H    4.998135   5.027741   4.088466   2.860523   2.853394
    18  H    6.236981   5.913832   4.738937   3.765492   4.291273
    19  N    6.847784   6.854366   5.775971   4.474100   4.497240
    20  H    7.774885   7.687776   6.534793   5.293996   5.449848
    21  C    6.829138   7.079483   6.158064   4.757674   4.407088
    22  C    8.260099   8.559807   7.640605   6.235635   5.841632
    23  H    8.438210   8.903377   8.118780   6.704961   6.094629
    24  H    8.574570   8.830889   7.875152   6.482254   6.152429
    25  H    8.997458   9.209152   8.219626   6.849154   6.585160
    26  O    5.900349   6.320636   5.566742   4.155998   3.517156
    27  O    2.444368   3.706645   4.140809   3.618045   2.333969
    28  C    2.793944   4.184731   4.983468   4.768954   3.621750
    29  H    3.870008   5.257903   5.977354   5.609523   4.342450
    30  H    2.777924   4.099589   5.033243   5.005038   4.004269
    31  H    2.775941   4.094617   5.024217   4.992288   3.992101
    32  C    5.422055   4.573870   3.482552   3.462570   4.557457
    33  F    6.163474   5.524190   4.384145   3.950205   4.836676
    34  F    4.626443   3.909097   3.134663   3.265805   4.129419
    35  F    6.389913   5.379211   4.382210   4.636874   5.807180
    36  C    4.579590   3.617006   2.247960   2.260692   3.646133
    37  H    5.633210   4.596077   3.267923   3.320816   4.686573
                    6          7          8          9         10
     6  C    0.000000
     7  H    2.176278   0.000000
     8  H    3.431587   2.461988   0.000000
     9  H    2.154411   4.321821   5.032869   0.000000
    10  C    3.792656   5.275238   4.468561   2.950211   0.000000
    11  N    4.135643   4.640379   2.874969   4.446578   2.263695
    12  H    4.884334   5.009223   2.855396   5.411570   3.227554
    13  C    4.616702   6.418747   5.910560   3.067871   1.492450
    14  H    4.464291   6.395964   6.190790   2.710643   2.121296
    15  H    5.641165   7.343832   6.578036   4.149315   2.145820
    16  C    4.874018   6.775231   6.529521   3.155597   2.505065
    17  H    4.059705   5.979699   6.016427   2.440441   2.630364
    18  H    5.539680   7.265185   6.762125   4.065197   2.883933
    19  N    5.798330   7.848556   7.849280   3.794212   3.780857
    20  H    6.772461   8.793597   8.646963   4.784994   4.415621
    21  C    5.604531   7.759534   8.137551   3.469499   4.367785
    22  C    6.986480   9.158777   9.623357   4.848574   5.781194
    23  H    7.092543   9.254113   9.986096   5.034262   6.456389
    24  H    7.322507   9.487737   9.884386   5.183820   5.951571
    25  H    7.771376   9.922113  10.249647   5.647981   6.253272
    26  O    4.597160   6.771930   7.404381   2.477072   4.119422
    27  O    1.364641   2.717622   4.597690   2.544583   4.923336
    28  C    2.371777   2.481391   4.835715   3.947901   6.150804
    29  H    3.257969   3.565485   5.930928   4.427886   6.931836
    30  H    2.707538   2.266689   4.614946   4.459618   6.406733
    31  H    2.701361   2.272730   4.611051   4.446130   6.386957
    32  C    5.417026   6.357977   5.035564   5.017845   2.808558
    33  F    5.871547   7.137992   6.134065   5.013976   3.098319
    34  F    4.722523   5.460396   4.352357   4.705831   3.178233
    35  F    6.574927   7.253617   5.613013   6.329698   3.950021
    36  C    4.592360   5.603668   4.170729   4.222713   1.389621
    37  H    5.671290   6.637855   5.022800   5.175822   2.234548
                   11         12         13         14         15
    11  N    0.000000
    12  H    1.009525   0.000000
    13  C    3.718960   4.641951   0.000000
    14  H    4.305228   5.235615   1.102043   0.000000
    15  H    4.076802   4.872240   1.100292   1.776536   0.000000
    16  C    4.577434   5.526318   1.537134   2.143970   2.181524
    17  H    4.508789   5.490352   2.160118   2.559400   3.071824
    18  H    4.633944   5.494643   2.184429   3.060691   2.471583
    19  N    5.960483   6.913723   2.490794   2.609671   2.865776
    20  H    6.552892   7.457468   3.045173   3.256051   3.068721
    21  C    6.583429   7.574855   3.152982   2.781188   3.705857
    22  C    8.027534   9.006615   4.455355   4.000303   4.782439
    23  H    8.656135   9.654429   5.246788   4.718272   5.709657
    24  H    8.206416   9.158608   4.581194   3.964198   4.768634
    25  H    8.485302   9.443923   4.870922   4.621645   5.045544
    26  O    6.216384   7.221550   3.213267   2.646112   4.023819
    27  O    5.493389   6.248144   5.488260   5.164870   6.557187
    28  C    6.364528   6.985065   6.841039   6.536185   7.897727
    29  H    7.355670   8.020423   7.453856   7.055931   8.527404
    30  H    6.384660   6.938209   7.209175   7.060578   8.265722
    31  H    6.378594   6.899604   7.182877   6.830503   8.186709
    32  C    2.891110   3.211950   3.484804   3.610237   3.352490
    33  F    3.959826   4.436301   3.173779   3.054411   2.855363
    34  F    2.985709   3.289220   4.050487   3.951577   4.226641
    35  F    3.508797   3.457408   4.630568   4.854418   4.296357
    36  C    1.382208   2.124745   2.595437   3.318455   2.753412
    37  H    2.148090   2.529197   3.018491   3.856971   2.779051
                   16         17         18         19         20
    16  C    0.000000
    17  H    1.098793   0.000000
    18  H    1.098493   1.775693   0.000000
    19  N    1.450390   2.062056   2.084210   0.000000
    20  H    2.141204   2.942897   2.381392   1.011239   0.000000
    21  C    2.431420   2.594717   3.312291   1.364578   2.054325
    22  C    3.789657   4.064402   4.517553   2.439297   2.562937
    23  H    4.519260   4.561239   5.287347   3.269313   3.531178
    24  H    4.265523   4.670339   5.048487   3.003544   3.032667
    25  H    4.026924   4.431045   4.518876   2.579102   2.314546
    26  O    2.734703   2.485487   3.762557   2.260488   3.147653
    27  O    5.554447   4.648186   6.314696   6.225293   7.233688
    28  C    6.917047   5.980490   7.623625   7.611108   8.620451
    29  H    7.421525   6.464273   8.183294   7.941447   8.950517
    30  H    7.173933   6.184150   7.750999   7.973867   8.971486
    31  H    7.474886   6.622254   8.202070   8.222242   9.222260
    32  C    4.964823   5.331247   5.308601   5.932709   6.350940
    33  F    4.704465   5.236023   5.169220   5.385968   5.708426
    34  F    5.473716   5.606685   5.969970   6.449282   7.021657
    35  F    6.073848   6.511112   6.266356   7.049742   7.360305
    36  C    3.607960   3.832371   3.646397   4.924569   5.404186
    37  H    3.979903   4.424421   3.790643   5.218549   5.509046
                   21         22         23         24         25
    21  C    0.000000
    22  C    1.513957   0.000000
    23  H    2.129801   1.095756   0.000000
    24  H    2.138414   1.099549   1.774673   0.000000
    25  H    2.187234   1.097767   1.796251   1.788961   0.000000
    26  O    1.219716   2.398759   2.589323   2.859106   3.275517
    27  O    5.763110   6.996497   6.890692   7.368758   7.850222
    28  C    7.130213   8.318084   8.129836   8.694648   9.179490
    29  H    7.303395   8.353306   8.024287   8.743683   9.240601
    30  H    7.629378   8.879328   8.714889   9.348459   9.662338
    31  H    7.750343   8.943277   8.806883   9.209939   9.848026
    32  C    6.381833   7.544911   8.302032   7.328971   8.078024
    33  F    5.742710   6.725922   7.527563   6.366070   7.259021
    34  F    6.679659   7.887441   8.508871   7.680081   8.558013
    35  F    7.597168   8.710579   9.520028   8.450126   9.174867
    36  C    5.665862   7.035744   7.774738   7.159233   7.420981
    37  H    6.127650   7.402871   8.239328   7.489454   7.661350
                   26         27         28         29         30
    26  O    0.000000
    27  O    4.627266   0.000000
    28  C    5.979917   1.406076   0.000000
    29  H    6.124005   2.009047   1.095710   0.000000
    30  H    6.545057   2.083977   1.103492   1.791529   0.000000
    31  H    6.588953   2.083648   1.103382   1.791756   1.795937
    32  C    6.149027   6.575347   7.604070   8.446647   8.007825
    33  F    5.633822   6.874835   8.017946   8.741535   8.542166
    34  F    6.207950   5.828564   6.719516   7.571984   7.180850
    35  F    7.442326   7.778047   8.724977   9.612567   9.075091
    36  C    5.499225   5.866625   6.949112   7.841133   7.093739
    37  H    6.153127   6.936317   8.029987   8.917361   8.150238
                   31         32         33         34         35
    31  H    0.000000
    32  C    7.440797   0.000000
    33  F    7.917025   1.330525   0.000000
    34  F    6.416677   1.325080   2.171735   0.000000
    35  F    8.483469   1.335274   2.173337   2.170098   0.000000
    36  C    7.060896   2.324691   3.070560   2.931908   3.109267
    37  H    8.145859   2.557516   3.202224   3.512336   2.959761
                   36         37
    36  C    0.000000
    37  H    1.087694   0.000000
 Stoichiometry    C14H16F3N2O2(2)
 Framework group  C1[X(C14H16F3N2O2)]
 Deg. of freedom   105
 Full point group                 C1      NOp   1
 Largest Abelian subgroup         C1      NOp   1
 Largest concise Abelian subgroup C1      NOp   1
                         Standard orientation:                         
 ---------------------------------------------------------------------
 Center     Atomic      Atomic             Coordinates (Angstroms)
 Number     Number       Type             X           Y           Z
 ---------------------------------------------------------------------
      1          6           0        2.270893    2.620359    0.277773
      2          6           0        2.828328    1.464824    0.814949
      3          6           0        2.014585    0.340237    0.933974
      4          6           0        0.659585    0.364779    0.517696
      5          6           0        0.105845    1.535270   -0.023224
      6          6           0        0.919463    2.656588   -0.136981
      7          1           0        2.898709    3.503876    0.180632
      8          1           0        3.872943    1.450520    1.127196
      9          1           0       -0.936058    1.582983   -0.351228
     10          6           0        0.117187   -0.941694    0.753501
     11          7           0        2.276496   -0.920870    1.432666
     12          1           0        3.192606   -1.267612    1.676908
     13          6           0       -1.281676   -1.359798    0.444025
     14          1           0       -1.523663   -1.052739   -0.586342
     15          1           0       -1.383123   -2.454150    0.496421
     16          6           0       -2.294255   -0.679455    1.379225
     17          1           0       -2.038725    0.385597    1.467053
     18          1           0       -2.254172   -1.118981    2.385156
     19          7           0       -3.656630   -0.753830    0.887255
     20          1           0       -4.240599   -1.539497    1.140849
     21          6           0       -4.040440    0.046992   -0.148818
     22          6           0       -5.431046   -0.202211   -0.693040
     23          1           0       -5.860791    0.759784   -0.993983
     24          1           0       -5.352181   -0.832296   -1.590693
     25          1           0       -6.089621   -0.695721    0.033472
     26          8           0       -3.304461    0.904349   -0.608147
     27          8           0        0.330393    3.767190   -0.667834
     28          6           0        1.121968    4.919609   -0.817463
     29          1           0        0.471104    5.681707   -1.260365
     30          1           0        1.497845    5.285649    0.153324
     31          1           0        1.979035    4.741386   -1.489120
     32          6           0        1.700665   -2.662392   -0.802068
     33          9           0        0.611178   -3.056510   -1.456275
     34          9           0        2.281133   -1.668100   -1.458023
     35          9           0        2.552223   -3.686655   -0.708844
     36          6           0        1.159637   -1.714561    1.250514
     37          1           0        1.114924   -2.709822    1.687017
 ---------------------------------------------------------------------
 Rotational constants (GHZ):           0.2822224           0.2480947           0.1529395
 Standard basis: CC-pVDZ (5D, 7F)
 There are   395 symmetry adapted cartesian basis functions of A   symmetry.
 There are   374 symmetry adapted basis functions of A   symmetry.
   374 basis functions,   805 primitive gaussians,   395 cartesian basis functions
    79 alpha electrons       78 beta electrons
       nuclear repulsion energy      1741.6649058395 Hartrees.
 NAtoms=   37 NActive=   37 NUniq=   37 SFac= 1.00D+00 NAtFMM=   60 NAOKFM=F Big=F
 Integral buffers will be    131072 words long.
 Raffenetti 2 integral format.
 Two-electron integral symmetry is turned on.
 Nuclear repulsion after empirical dispersion term =     1741.6626444909 Hartrees.
 One-electron integrals computed using PRISM.
 NBasis=   374 RedAO= T EigKep=  2.23D-04  NBF=   374
 NBsUse=   374 1.00D-06 EigRej= -1.00D+00 NBFU=   374
 ExpMin= 1.22D-01 ExpMax= 1.47D+04 ExpMxC= 5.03D+02 IAcc=3 IRadAn=         5 AccDes= 0.00D+00
 Harris functional with IExCor= 1009 and IRadAn=       5 diagonalized for initial guess.
 HarFok:  IExCor= 1009 AccDes= 0.00D+00 IRadAn=         5 IDoV= 1 UseB2=F ITyADJ=14
 ICtDFT=  3500011 ScaDFX=  1.000000  1.000000  1.000000  1.000000
 FoFCou: FMM=F IPFlag=           0 FMFlag=      100000 FMFlg1=           0
         NFxFlg=           0 DoJE=T BraDBF=F KetDBF=T FulRan=T
         wScrn=  0.000000 ICntrl=       500 IOpCl=  0 I1Cent=   200000004 NGrid=           0
         NMat0=    1 NMatS0=      1 NMatT0=    0 NMatD0=    1 NMtDS0=    0 NMtDT0=    0
 Petite list used in FoFCou.
 Initial guess <Sx>= 0.0000 <Sy>= 0.0000 <Sz>= 0.5000 <S**2>= 0.7500 S= 0.5000
 Requested convergence on RMS density matrix=1.00D-08 within 128 cycles.
 Requested convergence on MAX density matrix=1.00D-06.
 Requested convergence on             energy=1.00D-06.
 No special actions if energy rises.
 Integral accuracy reduced to 1.0D-05 until final iterations.
 Initial convergence to 1.0D-05 achieved.  Increase integral accuracy.
 SCF Done:  E(UM062X) =  -1102.21237166     A.U. after   21 cycles
            NFock= 21  Conv=0.55D-08     -V/T= 2.0058
 <Sx>= 0.0000 <Sy>= 0.0000 <Sz>= 0.5000 <S**2>= 0.7680 S= 0.5090
 <L.S>= 0.000000000000E+00
 Annihilation of the first spin contaminant:
 S**2 before annihilation     0.7680,   after     0.7501
 DoSCS=F DFT=T ScalE2(SS,OS)=  1.000000  1.000000
 Range of M.O.s used for correlation:     1   374
 NBasis=   374 NAE=    79 NBE=    78 NFC=     0 NFV=     0
 NROrb=    374 NOA=    79 NOB=    78 NVA=   295 NVB=   296

 **** Warning!!: The largest alpha MO coefficient is  0.11720922D+02


 **** Warning!!: The largest beta MO coefficient is  0.11754397D+02

 Symmetrizing basis deriv contribution to polar:
 IMax=3 JMax=2 DiffMx= 0.00D+00
 G2DrvN: will do    38 centers at a time, making    1 passes.
 Calling FoFCou, ICntrl=  3107 FMM=F I1Cent=   0 AccDes= 0.00D+00.
 End of G2Drv F.D. properties file   721 does not exist.
 End of G2Drv F.D. properties file   722 does not exist.
 End of G2Drv F.D. properties file   788 does not exist.
          IDoAtm=1111111111111111111111111111111111111
          Differentiating once with respect to electric field.
                with respect to dipole field.
          Differentiating once with respect to nuclear coordinates.
 CalDSu exits because no D1Ps are significant.
          There are   114 degrees of freedom in the 1st order CPHF.  IDoFFX=6 NUNeed=     3.
    111 vectors produced by pass  0 Test12= 4.64D-14 1.00D-09 XBig12= 3.26D+02 8.93D+00.
 AX will form   111 AO Fock derivatives at one time.
    111 vectors produced by pass  1 Test12= 4.64D-14 1.00D-09 XBig12= 4.97D+01 9.98D-01.
    111 vectors produced by pass  2 Test12= 4.64D-14 1.00D-09 XBig12= 1.21D+00 1.60D-01.
    111 vectors produced by pass  3 Test12= 4.64D-14 1.00D-09 XBig12= 2.29D-02 2.29D-02.
    111 vectors produced by pass  4 Test12= 4.64D-14 1.00D-09 XBig12= 2.67D-04 1.74D-03.
    111 vectors produced by pass  5 Test12= 4.64D-14 1.00D-09 XBig12= 2.25D-06 1.47D-04.
    103 vectors produced by pass  6 Test12= 4.64D-14 1.00D-09 XBig12= 1.37D-08 7.38D-06.
     41 vectors produced by pass  7 Test12= 4.64D-14 1.00D-09 XBig12= 7.40D-11 4.85D-07.
      4 vectors produced by pass  8 Test12= 4.64D-14 1.00D-09 XBig12= 5.72D-13 4.24D-08.
      3 vectors produced by pass  9 Test12= 4.64D-14 1.00D-09 XBig12= 4.38D-15 3.53D-09.
      1 vectors produced by pass 10 Test12= 4.64D-14 1.00D-09 XBig12= 1.24D-15 1.45D-09.
 InvSVY:  IOpt=1 It=  1 EMax= 2.49D-14
 Solved reduced A of dimension   818 with   114 vectors.
 Isotropic polarizability for W=    0.000000      181.66 Bohr**3.
 End of Minotr F.D. properties file   721 does not exist.
 End of Minotr F.D. properties file   722 does not exist.
 End of Minotr F.D. properties file   788 does not exist.

 **********************************************************************

            Population analysis using the SCF Density.

 **********************************************************************

 Orbital symmetries:
 Alpha Orbitals:
       Occupied  (A) (A) (A) (A) (A) (A) (A) (A) (A) (A) (A) (A)
                 (A) (A) (A) (A) (A) (A) (A) (A) (A) (A) (A) (A)
                 (A) (A) (A) (A) (A) (A) (A) (A) (A) (A) (A) (A)
                 (A) (A) (A) (A) (A) (A) (A) (A) (A) (A) (A) (A)
                 (A) (A) (A) (A) (A) (A) (A) (A) (A) (A) (A) (A)
                 (A) (A) (A) (A) (A) (A) (A) (A) (A) (A) (A) (A)
                 (A) (A) (A) (A) (A) (A) (A)
       Virtual   (A) (A) (A) (A) (A) (A) (A) (A) (A) (A) (A) (A)
                 (A) (A) (A) (A) (A) (A) (A) (A) (A) (A) (A) (A)
                 (A) (A) (A) (A) (A) (A) (A) (A) (A) (A) (A) (A)
                 (A) (A) (A) (A) (A) (A) (A) (A) (A) (A) (A) (A)
                 (A) (A) (A) (A) (A) (A) (A) (A) (A) (A) (A) (A)
                 (A) (A) (A) (A) (A) (A) (A) (A) (A) (A) (A) (A)
                 (A) (A) (A) (A) (A) (A) (A) (A) (A) (A) (A) (A)
                 (A) (A) (A) (A) (A) (A) (A) (A) (A) (A) (A) (A)
                 (A) (A) (A) (A) (A) (A) (A) (A) (A) (A) (A) (A)
                 (A) (A) (A) (A) (A) (A) (A) (A) (A) (A) (A) (A)
                 (A) (A) (A) (A) (A) (A) (A) (A) (A) (A) (A) (A)
                 (A) (A) (A) (A) (A) (A) (A) (A) (A) (A) (A) (A)
                 (A) (A) (A) (A) (A) (A) (A) (A) (A) (A) (A) (A)
                 (A) (A) (A) (A) (A) (A) (A) (A) (A) (A) (A) (A)
                 (A) (A) (A) (A) (A) (A) (A) (A) (A) (A) (A) (A)
                 (A) (A) (A) (A) (A) (A) (A) (A) (A) (A) (A) (A)
                 (A) (A) (A) (A) (A) (A) (A) (A) (A) (A) (A) (A)
                 (A) (A) (A) (A) (A) (A) (A) (A) (A) (A) (A) (A)
                 (A) (A) (A) (A) (A) (A) (A) (A) (A) (A) (A) (A)
                 (A) (A) (A) (A) (A) (A) (A) (A) (A) (A) (A) (A)
                 (A) (A) (A) (A) (A) (A) (A) (A) (A) (A) (A) (A)
                 (A) (A) (A) (A) (A) (A) (A) (A) (A) (A) (A) (A)
                 (A) (A) (A) (A) (A) (A) (A) (A) (A) (A) (A) (A)
                 (A) (A) (A) (A) (A) (A) (A) (A) (A) (A) (A) (A)
                 (A) (A) (A) (A) (A) (A) (A)
 Beta  Orbitals:
       Occupied  (A) (A) (A) (A) (A) (A) (A) (A) (A) (A) (A) (A)
                 (A) (A) (A) (A) (A) (A) (A) (A) (A) (A) (A) (A)
                 (A) (A) (A) (A) (A) (A) (A) (A) (A) (A) (A) (A)
                 (A) (A) (A) (A) (A) (A) (A) (A) (A) (A) (A) (A)
                 (A) (A) (A) (A) (A) (A) (A) (A) (A) (A) (A) (A)
                 (A) (A) (A) (A) (A) (A) (A) (A) (A) (A) (A) (A)
                 (A) (A) (A) (A) (A) (A)
       Virtual   (A) (A) (A) (A) (A) (A) (A) (A) (A) (A) (A) (A)
                 (A) (A) (A) (A) (A) (A) (A) (A) (A) (A) (A) (A)
                 (A) (A) (A) (A) (A) (A) (A) (A) (A) (A) (A) (A)
                 (A) (A) (A) (A) (A) (A) (A) (A) (A) (A) (A) (A)
                 (A) (A) (A) (A) (A) (A) (A) (A) (A) (A) (A) (A)
                 (A) (A) (A) (A) (A) (A) (A) (A) (A) (A) (A) (A)
                 (A) (A) (A) (A) (A) (A) (A) (A) (A) (A) (A) (A)
                 (A) (A) (A) (A) (A) (A) (A) (A) (A) (A) (A) (A)
                 (A) (A) (A) (A) (A) (A) (A) (A) (A) (A) (A) (A)
                 (A) (A) (A) (A) (A) (A) (A) (A) (A) (A) (A) (A)
                 (A) (A) (A) (A) (A) (A) (A) (A) (A) (A) (A) (A)
                 (A) (A) (A) (A) (A) (A) (A) (A) (A) (A) (A) (A)
                 (A) (A) (A) (A) (A) (A) (A) (A) (A) (A) (A) (A)
                 (A) (A) (A) (A) (A) (A) (A) (A) (A) (A) (A) (A)
                 (A) (A) (A) (A) (A) (A) (A) (A) (A) (A) (A) (A)
                 (A) (A) (A) (A) (A) (A) (A) (A) (A) (A) (A) (A)
                 (A) (A) (A) (A) (A) (A) (A) (A) (A) (A) (A) (A)
                 (A) (A) (A) (A) (A) (A) (A) (A) (A) (A) (A) (A)
                 (A) (A) (A) (A) (A) (A) (A) (A) (A) (A) (A) (A)
                 (A) (A) (A) (A) (A) (A) (A) (A) (A) (A) (A) (A)
                 (A) (A) (A) (A) (A) (A) (A) (A) (A) (A) (A) (A)
                 (A) (A) (A) (A) (A) (A) (A) (A) (A) (A) (A) (A)
                 (A) (A) (A) (A) (A) (A) (A) (A) (A) (A) (A) (A)
                 (A) (A) (A) (A) (A) (A) (A) (A) (A) (A) (A) (A)
                 (A) (A) (A) (A) (A) (A) (A) (A)
 The electronic state is 2-A.
 Alpha  occ. eigenvalues --  -25.28308 -25.28231 -25.28076 -19.64914 -19.59647
 Alpha  occ. eigenvalues --  -14.80057 -14.77889 -10.76610 -10.64699 -10.59757
 Alpha  occ. eigenvalues --  -10.59439 -10.59230 -10.58104 -10.57822 -10.55393
 Alpha  occ. eigenvalues --  -10.55172 -10.54922 -10.54761 -10.54607 -10.54232
 Alpha  occ. eigenvalues --  -10.53237  -1.45393  -1.36435  -1.36408  -1.17678
 Alpha  occ. eigenvalues --   -1.15408  -1.09058  -1.02668  -0.93893  -0.90609
 Alpha  occ. eigenvalues --   -0.85403  -0.83995  -0.82332  -0.80554  -0.78874
 Alpha  occ. eigenvalues --   -0.77174  -0.72769  -0.70595  -0.67581  -0.67496
 Alpha  occ. eigenvalues --   -0.66691  -0.65890  -0.64781  -0.63215  -0.61070
 Alpha  occ. eigenvalues --   -0.58077  -0.57594  -0.55971  -0.55589  -0.55535
 Alpha  occ. eigenvalues --   -0.54650  -0.53378  -0.53007  -0.52259  -0.51919
 Alpha  occ. eigenvalues --   -0.51641  -0.51036  -0.49645  -0.49476  -0.49012
 Alpha  occ. eigenvalues --   -0.47945  -0.47117  -0.46615  -0.46035  -0.45064
 Alpha  occ. eigenvalues --   -0.44497  -0.43623  -0.42334  -0.42167  -0.41047
 Alpha  occ. eigenvalues --   -0.39592  -0.37334  -0.36907  -0.33549  -0.32164
 Alpha  occ. eigenvalues --   -0.31112  -0.30870  -0.24350  -0.22262
 Alpha virt. eigenvalues --    0.02451   0.07123   0.07422   0.08395   0.09195
 Alpha virt. eigenvalues --    0.10576   0.11271   0.11586   0.13174   0.13600
 Alpha virt. eigenvalues --    0.15584   0.16273   0.16608   0.17103   0.17862
 Alpha virt. eigenvalues --    0.18399   0.18619   0.18633   0.19415   0.20618
 Alpha virt. eigenvalues --    0.22065   0.22995   0.23829   0.24439   0.25852
 Alpha virt. eigenvalues --    0.26511   0.27983   0.28370   0.28427   0.28809
 Alpha virt. eigenvalues --    0.29874   0.31136   0.32452   0.34530   0.36731
 Alpha virt. eigenvalues --    0.36858   0.39813   0.41015   0.41840   0.44658
 Alpha virt. eigenvalues --    0.46257   0.46357   0.46844   0.48679   0.49003
 Alpha virt. eigenvalues --    0.49543   0.49782   0.50720   0.51331   0.52455
 Alpha virt. eigenvalues --    0.52565   0.53071   0.54090   0.54726   0.54966
 Alpha virt. eigenvalues --    0.56163   0.57160   0.57870   0.58062   0.58869
 Alpha virt. eigenvalues --    0.59166   0.60213   0.61228   0.61289   0.63410
 Alpha virt. eigenvalues --    0.63991   0.64955   0.65198   0.67434   0.67535
 Alpha virt. eigenvalues --    0.68099   0.68326   0.68971   0.69808   0.70205
 Alpha virt. eigenvalues --    0.70365   0.71144   0.71464   0.72333   0.73073
 Alpha virt. eigenvalues --    0.73677   0.74383   0.74907   0.75680   0.76413
 Alpha virt. eigenvalues --    0.76781   0.77596   0.78316   0.79365   0.81060
 Alpha virt. eigenvalues --    0.81489   0.83582   0.84932   0.85237   0.86799
 Alpha virt. eigenvalues --    0.88143   0.90047   0.90918   0.92166   0.93657
 Alpha virt. eigenvalues --    0.94492   0.94702   0.96290   0.97762   0.98718
 Alpha virt. eigenvalues --    1.00052   1.01087   1.01813   1.02015   1.04094
 Alpha virt. eigenvalues --    1.04273   1.05268   1.06739   1.07504   1.08615
 Alpha virt. eigenvalues --    1.10136   1.11324   1.12243   1.12783   1.14584
 Alpha virt. eigenvalues --    1.14928   1.15857   1.16232   1.16586   1.17337
 Alpha virt. eigenvalues --    1.20566   1.21221   1.22545   1.23405   1.24249
 Alpha virt. eigenvalues --    1.24636   1.25214   1.27387   1.28784   1.30593
 Alpha virt. eigenvalues --    1.30744   1.31385   1.33114   1.33691   1.34492
 Alpha virt. eigenvalues --    1.34588   1.37673   1.38597   1.39226   1.40347
 Alpha virt. eigenvalues --    1.41755   1.42359   1.42975   1.43771   1.45287
 Alpha virt. eigenvalues --    1.45600   1.45696   1.46623   1.48153   1.49779
 Alpha virt. eigenvalues --    1.50952   1.52417   1.53309   1.53529   1.55899
 Alpha virt. eigenvalues --    1.56920   1.57690   1.59317   1.60498   1.61255
 Alpha virt. eigenvalues --    1.62343   1.62568   1.64021   1.64654   1.65543
 Alpha virt. eigenvalues --    1.66646   1.67246   1.67751   1.68422   1.68798
 Alpha virt. eigenvalues --    1.69629   1.70262   1.70796   1.70961   1.71806
 Alpha virt. eigenvalues --    1.73015   1.73833   1.74824   1.75289   1.76534
 Alpha virt. eigenvalues --    1.76873   1.77791   1.78613   1.78706   1.80239
 Alpha virt. eigenvalues --    1.80938   1.80959   1.82367   1.83534   1.83981
 Alpha virt. eigenvalues --    1.84579   1.85660   1.86989   1.88034   1.89700
 Alpha virt. eigenvalues --    1.90123   1.90587   1.91132   1.91992   1.93389
 Alpha virt. eigenvalues --    1.93657   1.95442   1.96067   1.97892   1.99016
 Alpha virt. eigenvalues --    1.99474   2.02118   2.02793   2.05361   2.06022
 Alpha virt. eigenvalues --    2.07588   2.08097   2.09791   2.10444   2.12189
 Alpha virt. eigenvalues --    2.13517   2.14114   2.18063   2.19145   2.20533
 Alpha virt. eigenvalues --    2.20966   2.21997   2.22770   2.24225   2.26526
 Alpha virt. eigenvalues --    2.28237   2.28338   2.30240   2.31914   2.33016
 Alpha virt. eigenvalues --    2.33615   2.36271   2.37896   2.39206   2.40945
 Alpha virt. eigenvalues --    2.41499   2.42344   2.43142   2.44317   2.45250
 Alpha virt. eigenvalues --    2.47357   2.47966   2.48461   2.49428   2.50342
 Alpha virt. eigenvalues --    2.51763   2.53623   2.53967   2.56453   2.59664
 Alpha virt. eigenvalues --    2.61321   2.64392   2.66153   2.68435   2.70569
 Alpha virt. eigenvalues --    2.71803   2.76024   2.77875   2.80771   2.83084
 Alpha virt. eigenvalues --    2.85029   2.91050   2.94311   2.96375   3.01211
 Alpha virt. eigenvalues --    3.10512   3.10901   3.12501   3.18927   3.28272
 Alpha virt. eigenvalues --    3.35584   3.47310   3.51332   3.58318   3.58882
 Alpha virt. eigenvalues --    3.62232   3.62397   3.62732   3.63371   3.63568
 Alpha virt. eigenvalues --    3.64222   3.64958   3.73136   3.73573   3.92339
 Alpha virt. eigenvalues --    4.08367   4.08949   4.11850   4.19494   4.20093
  Beta  occ. eigenvalues --  -25.28052 -25.28025 -25.27861 -19.64924 -19.59645
  Beta  occ. eigenvalues --  -14.80056 -14.77887 -10.75452 -10.64699 -10.59804
  Beta  occ. eigenvalues --  -10.59458 -10.59229 -10.58084 -10.57777 -10.55393
  Beta  occ. eigenvalues --  -10.55193 -10.54937 -10.54596 -10.54561 -10.54271
  Beta  occ. eigenvalues --  -10.53203  -1.44463  -1.35714  -1.35637  -1.17704
  Beta  occ. eigenvalues --   -1.15402  -1.08990  -1.02652  -0.93813  -0.90339
  Beta  occ. eigenvalues --   -0.85345  -0.83954  -0.82217  -0.80263  -0.77315
  Beta  occ. eigenvalues --   -0.77123  -0.72703  -0.70459  -0.66550  -0.66455
  Beta  occ. eigenvalues --   -0.66374  -0.65868  -0.63179  -0.61920  -0.60837
  Beta  occ. eigenvalues --   -0.58021  -0.57536  -0.55830  -0.54639  -0.54486
  Beta  occ. eigenvalues --   -0.54255  -0.53383  -0.52966  -0.52167  -0.51408
  Beta  occ. eigenvalues --   -0.51156  -0.50897  -0.49333  -0.49266  -0.48713
  Beta  occ. eigenvalues --   -0.47851  -0.47051  -0.46570  -0.45959  -0.44954
  Beta  occ. eigenvalues --   -0.44396  -0.43496  -0.42217  -0.41978  -0.40972
  Beta  occ. eigenvalues --   -0.39548  -0.37249  -0.36184  -0.32833  -0.32105
  Beta  occ. eigenvalues --   -0.30844  -0.26931  -0.23815
  Beta virt. eigenvalues --   -0.03900   0.04132   0.07344   0.07522   0.08422
  Beta virt. eigenvalues --    0.09301   0.11105   0.11564   0.11718   0.13173
  Beta virt. eigenvalues --    0.13634   0.15638   0.16296   0.16610   0.17102
  Beta virt. eigenvalues --    0.17855   0.18405   0.18624   0.18638   0.19464
  Beta virt. eigenvalues --    0.20637   0.22135   0.23457   0.24455   0.24957
  Beta virt. eigenvalues --    0.27142   0.27212   0.28538   0.28771   0.29086
  Beta virt. eigenvalues --    0.29605   0.30342   0.31285   0.32528   0.34782
  Beta virt. eigenvalues --    0.36847   0.37043   0.39918   0.41437   0.41887
  Beta virt. eigenvalues --    0.44908   0.46453   0.46770   0.47184   0.48964
  Beta virt. eigenvalues --    0.49495   0.49591   0.49816   0.51296   0.51684
  Beta virt. eigenvalues --    0.52606   0.52797   0.53333   0.54376   0.54957
  Beta virt. eigenvalues --    0.55150   0.56380   0.57303   0.58018   0.58318
  Beta virt. eigenvalues --    0.59189   0.59306   0.60700   0.61415   0.62138
  Beta virt. eigenvalues --    0.63572   0.64237   0.65027   0.65288   0.67482
  Beta virt. eigenvalues --    0.67638   0.68124   0.68338   0.68984   0.69915
  Beta virt. eigenvalues --    0.70278   0.70370   0.71217   0.71576   0.72327
  Beta virt. eigenvalues --    0.73194   0.73799   0.74533   0.74959   0.75740
  Beta virt. eigenvalues --    0.76722   0.76900   0.77722   0.78746   0.79574
  Beta virt. eigenvalues --    0.81221   0.81577   0.83610   0.85087   0.85438
  Beta virt. eigenvalues --    0.86928   0.88297   0.90191   0.91099   0.92431
  Beta virt. eigenvalues --    0.93861   0.94722   0.95134   0.96450   0.97932
  Beta virt. eigenvalues --    0.98930   1.00249   1.01251   1.01874   1.02314
  Beta virt. eigenvalues --    1.04362   1.04623   1.05977   1.07326   1.07683
  Beta virt. eigenvalues --    1.08839   1.10343   1.11479   1.12786   1.12977
  Beta virt. eigenvalues --    1.14788   1.15310   1.16093   1.16800   1.17151
  Beta virt. eigenvalues --    1.17478   1.20857   1.21613   1.22805   1.23563
  Beta virt. eigenvalues --    1.24326   1.24923   1.25320   1.27838   1.29091
  Beta virt. eigenvalues --    1.30623   1.30986   1.31629   1.33739   1.34003
  Beta virt. eigenvalues --    1.34663   1.35663   1.37799   1.39113   1.39618
  Beta virt. eigenvalues --    1.40533   1.42058   1.42817   1.43188   1.43848
  Beta virt. eigenvalues --    1.45516   1.45631   1.45830   1.46827   1.48436
  Beta virt. eigenvalues --    1.49987   1.51094   1.52569   1.53418   1.53732
  Beta virt. eigenvalues --    1.55997   1.56975   1.57872   1.59426   1.60545
  Beta virt. eigenvalues --    1.61347   1.62388   1.62725   1.64079   1.64721
  Beta virt. eigenvalues --    1.65623   1.66716   1.67305   1.67818   1.68542
  Beta virt. eigenvalues --    1.68874   1.69681   1.70434   1.70861   1.71138
  Beta virt. eigenvalues --    1.72125   1.73105   1.73888   1.74930   1.75437
  Beta virt. eigenvalues --    1.76633   1.76974   1.77847   1.78723   1.78905
  Beta virt. eigenvalues --    1.80344   1.81040   1.81175   1.82521   1.83654
  Beta virt. eigenvalues --    1.84080   1.84720   1.86180   1.87258   1.88464
  Beta virt. eigenvalues --    1.89935   1.90261   1.91094   1.91164   1.92122
  Beta virt. eigenvalues --    1.93564   1.93845   1.95552   1.96177   1.98073
  Beta virt. eigenvalues --    1.99095   1.99579   2.02178   2.02864   2.05416
  Beta virt. eigenvalues --    2.06072   2.07644   2.08183   2.09825   2.10470
  Beta virt. eigenvalues --    2.12214   2.13534   2.14189   2.18083   2.19158
  Beta virt. eigenvalues --    2.20577   2.21009   2.21964   2.22844   2.24236
  Beta virt. eigenvalues --    2.26566   2.28287   2.28388   2.30252   2.31941
  Beta virt. eigenvalues --    2.33059   2.33684   2.36371   2.37891   2.39168
  Beta virt. eigenvalues --    2.40955   2.41499   2.42354   2.43141   2.44322
  Beta virt. eigenvalues --    2.45299   2.47361   2.47979   2.48498   2.49431
  Beta virt. eigenvalues --    2.50393   2.51811   2.53721   2.54013   2.56496
  Beta virt. eigenvalues --    2.59736   2.61366   2.64462   2.66295   2.68495
  Beta virt. eigenvalues --    2.70692   2.71870   2.76123   2.77906   2.80806
  Beta virt. eigenvalues --    2.83095   2.85082   2.91092   2.94459   2.96362
  Beta virt. eigenvalues --    3.01425   3.10519   3.10890   3.12480   3.18933
  Beta virt. eigenvalues --    3.28334   3.35570   3.47330   3.51334   3.58321
  Beta virt. eigenvalues --    3.59007   3.62529   3.62695   3.63039   3.63745
  Beta virt. eigenvalues --    3.63917   3.64553   3.65101   3.73714   3.74130
  Beta virt. eigenvalues --    3.92702   4.08914   4.09478   4.12243   4.20029
  Beta virt. eigenvalues --    4.20612
          Condensed to atoms (all electrons):
               1          2          3          4          5          6
     1  C    4.981747   0.503201   0.004914  -0.063986  -0.041815   0.352157
     2  C    0.503201   4.794108   0.485241  -0.052997  -0.054967   0.014256
     3  C    0.004914   0.485241   5.061161   0.316196  -0.069949  -0.078862
     4  C   -0.063986  -0.052997   0.316196   5.026271   0.520244   0.019927
     5  C   -0.041815  -0.054967  -0.069949   0.520244   4.973744   0.502408
     6  C    0.352157   0.014256  -0.078862   0.019927   0.502408   4.820051
     7  H    0.380217  -0.024758   0.008462   0.000108   0.007906  -0.047189
     8  H   -0.030503   0.366632  -0.029757   0.010232   0.000234   0.007296
     9  H    0.014541  -0.001932   0.010857  -0.033027   0.347738  -0.030187
    10  C    0.000004   0.015605  -0.019781   0.385846  -0.142935   0.010297
    11  N    0.003751  -0.070700   0.415836  -0.055216   0.007113  -0.000055
    12  H   -0.000351  -0.010747  -0.023064   0.013789  -0.000217   0.000004
    13  C   -0.000022  -0.000070   0.018719  -0.091121  -0.014879   0.000238
    14  H   -0.000013  -0.000008  -0.000179  -0.016920   0.006171   0.000408
    15  H    0.000001   0.000001  -0.000714   0.012912   0.000111  -0.000003
    16  C    0.000001   0.000007  -0.000064  -0.009889  -0.001058   0.000056
    17  H   -0.000027  -0.000016  -0.000475   0.005462   0.006341   0.000297
    18  H    0.000000   0.000002  -0.000008  -0.001511   0.000029   0.000003
    19  N    0.000000   0.000000   0.000008   0.000392  -0.000280  -0.000008
    20  H   -0.000000   0.000000  -0.000001  -0.000011   0.000016   0.000000
    21  C   -0.000000   0.000000  -0.000003  -0.000247  -0.000005   0.000013
    22  C    0.000000  -0.000000  -0.000000  -0.000007  -0.000027   0.000001
    23  H    0.000000  -0.000000   0.000000  -0.000000  -0.000003  -0.000000
    24  H   -0.000000   0.000000   0.000000   0.000000   0.000000  -0.000000
    25  H    0.000000   0.000000   0.000000   0.000000   0.000001  -0.000000
    26  O   -0.000000  -0.000000  -0.000013  -0.001452  -0.006706   0.000268
    27  O   -0.071642   0.004584   0.000155   0.000455  -0.051127   0.403498
    28  C    0.000581   0.001811  -0.000034  -0.000020   0.005749  -0.087646
    29  H   -0.000226  -0.000030   0.000001   0.000015  -0.000283   0.003989
    30  H    0.007800   0.000081  -0.000038  -0.000005   0.000327  -0.006512
    31  H    0.008059   0.000035  -0.000013  -0.000029   0.000334  -0.006301
    32  C   -0.000021   0.000253  -0.000184  -0.002633   0.000031  -0.000016
    33  F    0.000000  -0.000003   0.000004  -0.000770   0.000006   0.000000
    34  F   -0.000071   0.000359   0.007969   0.000040  -0.000226   0.000031
    35  F    0.000000  -0.000002  -0.000169   0.000062   0.000000  -0.000000
    36  C    0.000369   0.003094  -0.170551  -0.002274   0.022237  -0.000831
    37  H    0.000017  -0.000436   0.001659   0.011618  -0.000054   0.000003
               7          8          9         10         11         12
     1  C    0.380217  -0.030503   0.014541   0.000004   0.003751  -0.000351
     2  C   -0.024758   0.366632  -0.001932   0.015605  -0.070700  -0.010747
     3  C    0.008462  -0.029757   0.010857  -0.019781   0.415836  -0.023064
     4  C    0.000108   0.010232  -0.033027   0.385846  -0.055216   0.013789
     5  C    0.007906   0.000234   0.347738  -0.142935   0.007113  -0.000217
     6  C   -0.047189   0.007296  -0.030187   0.010297  -0.000055   0.000004
     7  H    0.690252  -0.013353  -0.000141  -0.000008  -0.000114  -0.000010
     8  H   -0.013353   0.699024   0.000042  -0.000490  -0.005523   0.003214
     9  H   -0.000141   0.000042   0.662703  -0.021259  -0.000055   0.000011
    10  C   -0.000008  -0.000490  -0.021259   5.210068  -0.056230   0.007468
    11  N   -0.000114  -0.005523  -0.000055  -0.056230   6.161978   0.378659
    12  H   -0.000010   0.003214   0.000011   0.007468   0.378659   0.569405
    13  C   -0.000001   0.000008   0.003770   0.411478   0.003664  -0.000218
    14  H   -0.000000   0.000000   0.000961   0.006743  -0.000011   0.000019
    15  H    0.000000  -0.000000   0.000019   0.015390   0.000149  -0.000014
    16  C    0.000000   0.000000  -0.001812  -0.062340  -0.000037   0.000002
    17  H    0.000000  -0.000000   0.001698  -0.004792   0.000015  -0.000000
    18  H   -0.000000   0.000000   0.000045   0.003180  -0.000065   0.000002
    19  N    0.000000   0.000000  -0.000481   0.005775   0.000000  -0.000000
    20  H    0.000000  -0.000000  -0.000049   0.000147  -0.000000   0.000000
    21  C   -0.000000  -0.000000  -0.001476  -0.000378   0.000000  -0.000000
    22  C   -0.000000  -0.000000   0.000381  -0.000011   0.000000  -0.000000
    23  H    0.000000  -0.000000   0.000008   0.000003  -0.000000  -0.000000
    24  H   -0.000000  -0.000000  -0.000012  -0.000005  -0.000000   0.000000
    25  H   -0.000000   0.000000  -0.000013  -0.000002  -0.000000   0.000000
    26  O   -0.000000  -0.000000   0.030396  -0.001486   0.000000  -0.000000
    27  O   -0.008194  -0.000056   0.006304  -0.000062   0.000000  -0.000000
    28  C    0.007422  -0.000001  -0.000756   0.000004  -0.000000   0.000000
    29  H   -0.000422  -0.000000  -0.000132  -0.000000  -0.000000  -0.000000
    30  H    0.001678   0.000022   0.000134   0.000001   0.000000  -0.000000
    31  H    0.001763   0.000015   0.000146   0.000001   0.000000   0.000000
    32  C    0.000000  -0.000000  -0.000005  -0.050709  -0.020706   0.001065
    33  F    0.000000  -0.000000  -0.000005  -0.000170   0.000356   0.000016
    34  F   -0.000001   0.000077   0.000001   0.001396  -0.000476   0.000024
    35  F    0.000000  -0.000001  -0.000000   0.000386   0.000128   0.000573
    36  C    0.000013  -0.000409  -0.000044   0.419285   0.407391  -0.039857
    37  H   -0.000000  -0.000008  -0.000002  -0.022870  -0.026490  -0.005022
              13         14         15         16         17         18
     1  C   -0.000022  -0.000013   0.000001   0.000001  -0.000027   0.000000
     2  C   -0.000070  -0.000008   0.000001   0.000007  -0.000016   0.000002
     3  C    0.018719  -0.000179  -0.000714  -0.000064  -0.000475  -0.000008
     4  C   -0.091121  -0.016920   0.012912  -0.009889   0.005462  -0.001511
     5  C   -0.014879   0.006171   0.000111  -0.001058   0.006341   0.000029
     6  C    0.000238   0.000408  -0.000003   0.000056   0.000297   0.000003
     7  H   -0.000001  -0.000000   0.000000   0.000000   0.000000  -0.000000
     8  H    0.000008   0.000000  -0.000000   0.000000  -0.000000   0.000000
     9  H    0.003770   0.000961   0.000019  -0.001812   0.001698   0.000045
    10  C    0.411478   0.006743   0.015390  -0.062340  -0.004792   0.003180
    11  N    0.003664  -0.000011   0.000149  -0.000037   0.000015  -0.000065
    12  H   -0.000218   0.000019  -0.000014   0.000002  -0.000000   0.000002
    13  C    4.719110   0.357365   0.328458   0.430119  -0.042467  -0.031292
    14  H    0.357365   0.640762  -0.038618  -0.023666  -0.010441   0.009089
    15  H    0.328458  -0.038618   0.697480  -0.024614   0.008987  -0.012594
    16  C    0.430119  -0.023666  -0.024614   4.601993   0.391990   0.374162
    17  H   -0.042467  -0.010441   0.008987   0.391990   0.625432  -0.030813
    18  H   -0.031292   0.009089  -0.012594   0.374162  -0.030813   0.672440
    19  N   -0.048463  -0.012135   0.001607   0.324152  -0.024192  -0.016197
    20  H    0.000396  -0.000864   0.002157  -0.031369   0.007691  -0.008362
    21  C   -0.005871   0.007997  -0.000392  -0.047593  -0.008676   0.006820
    22  C   -0.000619  -0.000315   0.000087   0.009402   0.000918  -0.000323
    23  H    0.000011   0.000003   0.000002  -0.000439   0.000066   0.000016
    24  H    0.000115  -0.000000  -0.000035  -0.000123  -0.000037   0.000003
    25  H    0.000049   0.000026  -0.000018   0.000170  -0.000169  -0.000060
    26  O   -0.003358   0.005692   0.000247   0.004318   0.009620   0.000526
    27  O   -0.000002  -0.000004  -0.000000   0.000001  -0.000025  -0.000000
    28  C    0.000000   0.000000   0.000000  -0.000000   0.000001  -0.000000
    29  H    0.000000   0.000000  -0.000000  -0.000000   0.000000   0.000000
    30  H   -0.000000  -0.000000  -0.000000   0.000000  -0.000000  -0.000000
    31  H    0.000000   0.000000   0.000000   0.000000  -0.000000   0.000000
    32  C   -0.002077   0.000670  -0.000776  -0.000028  -0.000005   0.000014
    33  F    0.006441   0.001465   0.002675   0.000144   0.000000   0.000000
    34  F   -0.000250   0.000122   0.000034  -0.000001   0.000000   0.000000
    35  F    0.000052   0.000008  -0.000041  -0.000000   0.000000  -0.000000
    36  C   -0.102453   0.004375  -0.012925   0.000790  -0.000337   0.001979
    37  H   -0.006621  -0.000062   0.004239  -0.000074   0.000061  -0.000047
              19         20         21         22         23         24
     1  C    0.000000  -0.000000  -0.000000   0.000000   0.000000  -0.000000
     2  C    0.000000   0.000000   0.000000  -0.000000  -0.000000   0.000000
     3  C    0.000008  -0.000001  -0.000003  -0.000000   0.000000   0.000000
     4  C    0.000392  -0.000011  -0.000247  -0.000007  -0.000000   0.000000
     5  C   -0.000280   0.000016  -0.000005  -0.000027  -0.000003   0.000000
     6  C   -0.000008   0.000000   0.000013   0.000001  -0.000000  -0.000000
     7  H    0.000000   0.000000  -0.000000  -0.000000   0.000000  -0.000000
     8  H    0.000000  -0.000000  -0.000000  -0.000000  -0.000000  -0.000000
     9  H   -0.000481  -0.000049  -0.001476   0.000381   0.000008  -0.000012
    10  C    0.005775   0.000147  -0.000378  -0.000011   0.000003  -0.000005
    11  N    0.000000  -0.000000   0.000000   0.000000  -0.000000  -0.000000
    12  H   -0.000000   0.000000  -0.000000  -0.000000  -0.000000   0.000000
    13  C   -0.048463   0.000396  -0.005871  -0.000619   0.000011   0.000115
    14  H   -0.012135  -0.000864   0.007997  -0.000315   0.000003  -0.000000
    15  H    0.001607   0.002157  -0.000392   0.000087   0.000002  -0.000035
    16  C    0.324152  -0.031369  -0.047593   0.009402  -0.000439  -0.000123
    17  H   -0.024192   0.007691  -0.008676   0.000918   0.000066  -0.000037
    18  H   -0.016197  -0.008362   0.006820  -0.000323   0.000016   0.000003
    19  N    6.393109   0.369069   0.376552  -0.085853   0.004080  -0.000123
    20  H    0.369069   0.581928  -0.021962  -0.004866   0.000178  -0.000019
    21  C    0.376552  -0.021962   4.498754   0.399591  -0.005580  -0.009331
    22  C   -0.085853  -0.004866   0.399591   4.678797   0.374174   0.379871
    23  H    0.004080   0.000178  -0.005580   0.374174   0.585548  -0.014460
    24  H   -0.000123  -0.000019  -0.009331   0.379871  -0.014460   0.587958
    25  H    0.003509   0.000552  -0.018955   0.370338  -0.021570  -0.021565
    26  O   -0.090077   0.003429   0.720850  -0.070435   0.004402  -0.000504
    27  O    0.000000  -0.000000  -0.000001   0.000000  -0.000000   0.000000
    28  C   -0.000000   0.000000   0.000000  -0.000000  -0.000000  -0.000000
    29  H   -0.000000   0.000000   0.000000  -0.000000  -0.000000  -0.000000
    30  H    0.000000  -0.000000  -0.000000   0.000000  -0.000000   0.000000
    31  H    0.000000   0.000000  -0.000000   0.000000  -0.000000   0.000000
    32  C    0.000000  -0.000000  -0.000000  -0.000000  -0.000000   0.000000
    33  F   -0.000000  -0.000000  -0.000000  -0.000000  -0.000000  -0.000000
    34  F    0.000000  -0.000000  -0.000000  -0.000000   0.000000  -0.000000
    35  F   -0.000000  -0.000000  -0.000000  -0.000000  -0.000000  -0.000000
    36  C   -0.000061   0.000004  -0.000003  -0.000000   0.000000   0.000000
    37  H   -0.000003   0.000002  -0.000002  -0.000000   0.000000  -0.000000
              25         26         27         28         29         30
     1  C    0.000000  -0.000000  -0.071642   0.000581  -0.000226   0.007800
     2  C    0.000000  -0.000000   0.004584   0.001811  -0.000030   0.000081
     3  C    0.000000  -0.000013   0.000155  -0.000034   0.000001  -0.000038
     4  C    0.000000  -0.001452   0.000455  -0.000020   0.000015  -0.000005
     5  C    0.000001  -0.006706  -0.051127   0.005749  -0.000283   0.000327
     6  C   -0.000000   0.000268   0.403498  -0.087646   0.003989  -0.006512
     7  H   -0.000000  -0.000000  -0.008194   0.007422  -0.000422   0.001678
     8  H    0.000000  -0.000000  -0.000056  -0.000001  -0.000000   0.000022
     9  H   -0.000013   0.030396   0.006304  -0.000756  -0.000132   0.000134
    10  C   -0.000002  -0.001486  -0.000062   0.000004  -0.000000   0.000001
    11  N   -0.000000   0.000000   0.000000  -0.000000  -0.000000   0.000000
    12  H    0.000000  -0.000000  -0.000000   0.000000  -0.000000  -0.000000
    13  C    0.000049  -0.003358  -0.000002   0.000000   0.000000  -0.000000
    14  H    0.000026   0.005692  -0.000004   0.000000   0.000000  -0.000000
    15  H   -0.000018   0.000247  -0.000000   0.000000  -0.000000  -0.000000
    16  C    0.000170   0.004318   0.000001  -0.000000  -0.000000   0.000000
    17  H   -0.000169   0.009620  -0.000025   0.000001   0.000000  -0.000000
    18  H   -0.000060   0.000526  -0.000000  -0.000000   0.000000  -0.000000
    19  N    0.003509  -0.090077   0.000000  -0.000000  -0.000000   0.000000
    20  H    0.000552   0.003429  -0.000000   0.000000   0.000000  -0.000000
    21  C   -0.018955   0.720850  -0.000001   0.000000   0.000000  -0.000000
    22  C    0.370338  -0.070435   0.000000  -0.000000  -0.000000   0.000000
    23  H   -0.021570   0.004402  -0.000000  -0.000000  -0.000000  -0.000000
    24  H   -0.021565  -0.000504   0.000000  -0.000000  -0.000000   0.000000
    25  H    0.643634   0.003038   0.000000  -0.000000  -0.000000   0.000000
    26  O    0.003038   7.680638  -0.000004   0.000000  -0.000000  -0.000000
    27  O    0.000000  -0.000004   7.759785   0.344228  -0.020182  -0.032447
    28  C   -0.000000   0.000000   0.344228   4.461870   0.403429   0.391515
    29  H   -0.000000  -0.000000  -0.020182   0.403429   0.609677  -0.026221
    30  H    0.000000  -0.000000  -0.032447   0.391515  -0.026221   0.674773
    31  H   -0.000000  -0.000000  -0.032434   0.391888  -0.025792  -0.049679
    32  C    0.000000  -0.000000   0.000000  -0.000000   0.000000   0.000000
    33  F    0.000000  -0.000000  -0.000000  -0.000000   0.000000  -0.000000
    34  F    0.000000  -0.000000  -0.000000  -0.000000  -0.000000  -0.000000
    35  F    0.000000  -0.000000   0.000000  -0.000000   0.000000   0.000000
    36  C    0.000000  -0.000010   0.000001  -0.000000   0.000000   0.000000
    37  H    0.000000  -0.000000  -0.000000   0.000000  -0.000000   0.000000
              31         32         33         34         35         36
     1  C    0.008059  -0.000021   0.000000  -0.000071   0.000000   0.000369
     2  C    0.000035   0.000253  -0.000003   0.000359  -0.000002   0.003094
     3  C   -0.000013  -0.000184   0.000004   0.007969  -0.000169  -0.170551
     4  C   -0.000029  -0.002633  -0.000770   0.000040   0.000062  -0.002274
     5  C    0.000334   0.000031   0.000006  -0.000226   0.000000   0.022237
     6  C   -0.006301  -0.000016   0.000000   0.000031  -0.000000  -0.000831
     7  H    0.001763   0.000000   0.000000  -0.000001   0.000000   0.000013
     8  H    0.000015  -0.000000  -0.000000   0.000077  -0.000001  -0.000409
     9  H    0.000146  -0.000005  -0.000005   0.000001  -0.000000  -0.000044
    10  C    0.000001  -0.050709  -0.000170   0.001396   0.000386   0.419285
    11  N    0.000000  -0.020706   0.000356  -0.000476   0.000128   0.407391
    12  H    0.000000   0.001065   0.000016   0.000024   0.000573  -0.039857
    13  C    0.000000  -0.002077   0.006441  -0.000250   0.000052  -0.102453
    14  H    0.000000   0.000670   0.001465   0.000122   0.000008   0.004375
    15  H    0.000000  -0.000776   0.002675   0.000034  -0.000041  -0.012925
    16  C    0.000000  -0.000028   0.000144  -0.000001  -0.000000   0.000790
    17  H   -0.000000  -0.000005   0.000000   0.000000   0.000000  -0.000337
    18  H    0.000000   0.000014   0.000000   0.000000  -0.000000   0.001979
    19  N    0.000000   0.000000  -0.000000   0.000000  -0.000000  -0.000061
    20  H    0.000000  -0.000000  -0.000000  -0.000000  -0.000000   0.000004
    21  C   -0.000000  -0.000000  -0.000000  -0.000000  -0.000000  -0.000003
    22  C    0.000000  -0.000000  -0.000000  -0.000000  -0.000000  -0.000000
    23  H   -0.000000  -0.000000  -0.000000   0.000000  -0.000000   0.000000
    24  H    0.000000   0.000000  -0.000000  -0.000000  -0.000000   0.000000
    25  H   -0.000000   0.000000   0.000000   0.000000   0.000000   0.000000
    26  O   -0.000000  -0.000000  -0.000000  -0.000000  -0.000000  -0.000010
    27  O   -0.032434   0.000000  -0.000000  -0.000000   0.000000   0.000001
    28  C    0.391888  -0.000000  -0.000000  -0.000000  -0.000000  -0.000000
    29  H   -0.025792   0.000000   0.000000  -0.000000   0.000000   0.000000
    30  H   -0.049679   0.000000  -0.000000  -0.000000   0.000000   0.000000
    31  H    0.671983  -0.000000   0.000000   0.000000  -0.000000  -0.000000
    32  C   -0.000000   4.620264   0.316481   0.327924   0.318092   0.077719
    33  F    0.000000   0.316481   8.910831  -0.030860  -0.031331  -0.011289
    34  F    0.000000   0.327924  -0.030860   8.893944  -0.031876  -0.014481
    35  F   -0.000000   0.318092  -0.031331  -0.031876   8.925918  -0.006055
    36  C   -0.000000   0.077719  -0.011289  -0.014481  -0.006055   5.082165
    37  H   -0.000000  -0.011258   0.000054   0.000672   0.001616   0.390599
              37
     1  C    0.000017
     2  C   -0.000436
     3  C    0.001659
     4  C    0.011618
     5  C   -0.000054
     6  C    0.000003
     7  H   -0.000000
     8  H   -0.000008
     9  H   -0.000002
    10  C   -0.022870
    11  N   -0.026490
    12  H   -0.005022
    13  C   -0.006621
    14  H   -0.000062
    15  H    0.004239
    16  C   -0.000074
    17  H    0.000061
    18  H   -0.000047
    19  N   -0.000003
    20  H    0.000002
    21  C   -0.000002
    22  C   -0.000000
    23  H    0.000000
    24  H   -0.000000
    25  H    0.000000
    26  O   -0.000000
    27  O   -0.000000
    28  C    0.000000
    29  H   -0.000000
    30  H    0.000000
    31  H   -0.000000
    32  C   -0.011258
    33  F    0.000054
    34  F    0.000672
    35  F    0.001616
    36  C    0.390599
    37  H    0.639614
          Atomic-Atomic Spin Densities.
               1          2          3          4          5          6
     1  C    0.086640  -0.008104  -0.004506  -0.000783  -0.003597   0.003668
     2  C   -0.008104  -0.032895   0.009966   0.001344   0.000440  -0.000041
     3  C   -0.004506   0.009966   0.070323   0.002543   0.001932  -0.000179
     4  C   -0.000783   0.001344   0.002543  -0.052973   0.007313   0.000586
     5  C   -0.003597   0.000440   0.001932   0.007313   0.062354  -0.006025
[...]
 061223,-0.00021675,-0.00114053,-0.00025770,-0.00038681,0.00001338,-0.0
 0000220,0.00002151,0.00000551,-0.00006417,0.00004468,-0.00010775,0.000
 16877,-0.00001601,-0.00249221,-0.00122503,-0.00234602,0.00162542,-0.00
 036546,-0.00004524,0.00002909,-0.00030072,0.00062245,-0.00108156,0.001
 42489,0.00029042,0.00105125,0.00062006,0.00027394,0.00094750,-0.001222
 82,-0.00097827,0.00100538,-0.00066962,0.00026579,-0.00045120,-0.000253
 65,0.00029554,-0.00027943,-0.00006422,0.00015847,0.00016742,-0.0002490
 3,-0.00005781,0.00013302,0.00009995,-0.00011263,0.00005757,0.00047054,
 0.00014116,0.00002716,-0.00003148,-0.00003093,-0.00000629,-0.00001634,
 0.00000585,0.00006297,0.00001408,0.00004029,0.00001565,0.00000932,0.00
 000613,0.00019343,-0.00040760,0.00002885,0.00028076,0.00062366,0.00028
 338,0.00011832,-0.00023596,-0.00002855,0.00003243,0.00005286,0.0000205
 4,-0.00004297,-0.00000810,0.00000191,-0.00003608,-0.00000241,-0.000035
 04,-0.22139681,0.05917711,-0.10074905,0.31760954,0.00000783,-0.0003056
 9,-0.00007859,-0.00025849,-0.00019763,-0.00006755,0.00037675,0.0009511
 6,0.00038232,-0.00010005,-0.00025457,-0.00015704,0.00022193,0.00018236
 ,0.00016492,0.00066168,0.00064867,0.00039106,0.00000744,-0.00002456,-0
 .00000690,0.00004435,0.00000705,-0.00000718,0.00009076,-0.00004104,0.0
 0000358,0.00282715,0.00253382,0.00211751,0.00127722,-0.00200379,0.0005
 1851,-0.00013700,-0.00023713,-0.00029060,0.00017684,-0.00137876,0.0001
 3635,-0.00028590,-0.00015323,-0.00005913,-0.00067037,0.00033571,0.0005
 7178,0.00010920,0.00044665,-0.00007977,0.00016281,0.00010281,-0.000095
 77,0.00004250,-0.00002876,0.00001459,-0.00045269,-0.00002091,-0.000121
 86,-0.00005569,-0.00008048,0.00000870,0.00031680,-0.00008111,0.0001584
 2,-0.00006437,0.00002973,-0.00004657,-0.00000889,0.00000281,-0.0000045
 9,-0.00003502,-0.00000704,-0.00002724,-0.00002361,-0.00000073,0.000010
 46,-0.00033474,0.00011831,-0.00006567,-0.00023062,-0.00092084,-0.00036
 328,-0.00023180,0.00037422,0.00005159,-0.00002876,-0.00006083,-0.00002
 510,0.00006127,-0.00001369,0.00001295,0.00006294,-0.00001030,0.0000169
 1,0.07313293,-0.09393089,0.04051322,-0.08679228,0.10312774,0.00014933,
 0.00111582,0.00047163,0.00057280,0.00005445,0.00023763,-0.00059647,-0.
 00045632,-0.00077996,-0.00021282,0.00124649,0.00070898,-0.00039896,-0.
 00079994,-0.00026360,-0.00185293,-0.00084274,-0.00085781,0.00000719,0.
 00004146,-0.00000705,-0.00013086,0.00001955,-0.00008521,-0.00009842,0.
 00010927,-0.00009089,-0.00557289,-0.00584442,-0.00525606,-0.00078345,0
 .00262516,-0.00106312,0.00019901,0.00013973,0.00036617,0.00020931,0.00
 139686,-0.00087334,0.00115224,0.00032316,0.00024575,0.00088347,-0.0002
 3047,-0.00090384,-0.00014974,-0.00047536,0.00050079,-0.00025997,-0.000
 14885,0.00012361,-0.00021712,-0.00005034,0.00008053,0.00096307,0.00021
 680,0.00042016,0.00010372,0.00011957,-0.00002242,-0.00043294,-0.000202
 74,-0.00065751,0.00011722,-0.00002975,0.00009016,0.00002392,0.00000049
 ,0.00000541,0.00008121,-0.00000184,0.00004482,0.00002799,0.00000007,-0
 .00000171,0.00040073,-0.00003263,0.00034963,0.00041700,0.00155507,0.00
 069406,0.00043114,-0.00060726,-0.00014517,0.00005476,0.00011152,0.0000
 4347,-0.00010795,0.00000079,0.00000529,-0.00013101,0.00001317,-0.00003
 395,-0.14064974,0.04570049,-0.13834111,0.14185279,-0.03662937,0.117659
 33,-0.00019088,-0.00100709,-0.00051666,-0.00014323,0.00044845,-0.00010
 125,0.00051129,-0.00210479,0.00012409,-0.00051287,-0.00023672,0.000107
 98,0.00023080,0.00050336,0.00006840,0.00093649,0.00005640,0.00036802,-
 0.00001215,-0.00002739,0.00003898,0.00016230,-0.00011404,0.00019572,-0
 .00000865,0.00007393,0.00006103,0.00343676,0.00369266,0.00258864,0.002
 90419,-0.00013667,-0.00200093,-0.00007166,-0.00033559,0.00098091,-0.00
 048150,-0.00024416,0.00022556,-0.00008852,0.00023507,-0.00006539,0.000
 13522,-0.00010154,-0.00022517,0.00057083,0.00023320,-0.00027691,-0.000
 03869,-0.00003872,0.00005681,-0.00000063,-0.00000096,0.00004274,-0.000
 53320,-0.00034347,-0.00026785,0.00001648,-0.00000794,-0.00005829,0.000
 27038,0.00044899,0.00050136,-0.00005016,-0.00000278,-0.00008028,-0.000
 01840,-0.00001238,0.00000057,-0.00000442,0.00001171,0.00000143,-0.0000
 0419,0.00000676,0.00000450,-0.00010172,-0.00028133,-0.00019434,-0.0000
 2110,-0.00046221,-0.00022878,-0.00022020,0.00019868,0.00009863,-0.0000
 1101,-0.00003198,-0.00001532,0.00003981,0.00000904,-0.00001010,0.00006
 649,-0.00000403,-0.00000508,-0.12120818,0.09292821,0.06095587,-0.04026
 996,0.04378985,0.01448715,0.14104012,-0.00004291,0.00079364,0.00037584
 ,-0.00000443,0.00013322,0.00020052,-0.00063741,0.00203237,0.00039051,-
 0.00014886,0.00063177,0.00049668,0.00002886,-0.00009839,0.00024919,-0.
 00050878,0.00042693,-0.00018101,0.00001869,-0.00001559,-0.00004027,-0.
 00011463,0.00008577,-0.00019182,0.00009228,-0.00005806,-0.00010267,-0.
 00079116,-0.00211806,-0.00180331,-0.00164665,-0.00106372,0.00121914,-0
 .00009171,-0.00014671,-0.00078006,0.00040528,-0.00008773,-0.00020063,0
 .00018533,-0.00021432,0.00002373,-0.00023921,0.00021654,0.00028589,-0.
 00036519,-0.00007180,0.00015174,0.00009814,0.00006720,-0.00008887,-0.0
 0000570,-0.00000211,-0.00000509,0.00024240,0.00029097,0.00025780,-0.00
 001554,-0.00001945,0.00002397,0.00002523,-0.00049778,-0.00042631,0.000
 00191,0.00002588,0.00003163,0.00001340,0.00000922,-0.00000263,-0.00000
 172,-0.00001359,-0.00000988,-0.00001290,-0.00000165,0.00000835,-0.0001
 8180,0.00032498,0.00021260,-0.00011873,-0.00029482,-0.00002854,0.00000
 669,0.00013690,-0.00007361,-0.00000431,-0.00001140,-0.00000379,0.00001
 043,-0.00003051,0.00003944,-0.00001799,-0.00000293,0.00000729,0.079586
 81,-0.20079102,-0.09855586,0.04322646,-0.02380399,-0.00350129,-0.12104
 700,0.28764297,0.00067857,0.00201155,0.00106476,0.00067580,-0.00160634
 ,0.00000557,-0.00082437,0.00375983,-0.00034257,0.00010457,0.00113473,0
 .00033917,-0.00024016,-0.00098145,-0.00011643,-0.00228425,-0.00016040,
 -0.00084219,0.00003908,0.00005729,-0.00006039,-0.00020704,0.00008628,-
 0.00021609,0.00000758,-0.00000588,-0.00013306,-0.00476827,-0.00499974,
 -0.00422182,0.00000138,-0.00284447,0.00235339,0.00003591,0.00028046,-0
 .00069836,0.00035189,0.00082399,-0.00040130,0.00072350,-0.00012843,0.0
 0017054,0.00011979,-0.00014913,-0.00005079,-0.00065870,-0.00049977,0.0
 0050317,-0.00006804,-0.00002402,-0.00000206,-0.00009658,-0.00002074,-0
 .00000086,0.00094118,0.00046690,0.00049297,0.00003006,0.00005246,0.000
 04352,-0.00040123,-0.00061949,-0.00085001,0.00009445,-0.00000174,0.000
 11360,0.00003027,0.00001423,-0.00000053,0.00003936,-0.00001725,0.00001
 446,0.00001136,-0.00000577,-0.00000015,0.00020045,0.00031259,0.0004040
 7,0.00025124,0.00111204,0.00057380,0.00041807,-0.00043747,-0.00018778,
 0.00003715,0.00008064,0.00003384,-0.00008818,-0.00002324,0.00002484,-0
 .00013543,0.00000478,-0.00001336,0.07166593,-0.13369458,-0.14611761,-0
 .00473149,0.01299274,0.02480074,-0.06470398,0.14016776,0.12816323,-0.0
 0049195,-0.00122411,-0.00056475,-0.00055614,0.00103483,0.00012263,0.00
 037434,-0.00210357,-0.00060043,0.00037317,-0.00001292,0.00008494,0.000
 21048,0.00068796,0.00030547,0.00160065,0.00051733,0.00064686,-0.000005
 45,-0.00003085,0.00000189,0.00017418,-0.00009023,0.00008187,0.00007818
 ,0.00006750,0.00001328,0.00153686,0.00233910,0.00421421,0.00186217,0.0
 0000702,0.00107452,-0.00024656,-0.00116533,0.00060591,-0.00019337,-0.0
 0054657,0.00017556,0.00002613,0.00036443,-0.00006021,-0.00003034,-0.00
 000541,-0.00023700,0.00075681,0.00033689,-0.00036839,-0.00000531,-0.00
 001882,0.00002592,-0.00005031,-0.00001692,0.00012181,-0.00079022,-0.00
 033058,-0.00018553,0.00001871,-0.00003720,-0.00010698,0.00056139,0.000
 28420,0.00045039,-0.00009386,0.00002678,-0.00012306,-0.00001898,-0.000
 01409,-0.00000161,-0.00000462,0.00000613,-0.00000667,-0.00002454,0.000
 01203,0.00002129,-0.00041987,-0.00016131,-0.00011086,-0.00019930,-0.00
 111068,-0.00043053,-0.00036659,0.00052241,0.00008209,-0.00003705,-0.00
 007279,-0.00003426,0.00008593,-0.00000775,0.00002608,0.00009336,-0.000
 00328,0.00001445,-0.17025562,-0.12523576,-0.01102959,-0.05855235,-0.02
 984483,-0.01735263,0.02267750,-0.00199447,-0.00868520,0.20886897,-0.00
 068146,-0.00140004,-0.00060935,-0.00077914,0.00135997,0.00029015,0.000
 18615,-0.00254144,-0.00105135,0.00045168,0.00001266,0.00000323,0.00022
 742,0.00080158,0.00044260,0.00200373,0.00078013,0.00080296,-0.00000262
 ,-0.00003140,-0.00000704,0.00017236,-0.00004511,0.00002053,0.00013682,
 0.00002973,-0.00000353,0.00173579,0.00218594,0.00508839,0.00146072,0.0
 0161981,0.00049012,-0.00010576,-0.00092569,0.00010531,0.00010580,-0.00
 097981,0.00021701,-0.00014773,0.00023876,-0.00012801,-0.00022172,0.000
 23198,-0.00003886,0.00068927,0.00046785,-0.00045439,0.00008125,0.00004
 050,-0.00003411,-0.00001503,-0.00001748,0.00012116,-0.00092101,-0.0002
 5980,-0.00015150,-0.00000889,-0.00007519,-0.00010191,0.00068063,0.0001
 1029,0.00039982,-0.00011830,0.00004542,-0.00013302,-0.00001871,-0.0000
 1041,-0.00000383,-0.00001931,-0.00000021,-0.00002025,-0.00003733,0.000
 01116,0.00002756,-0.00059889,-0.00001803,-0.00008318,-0.00032877,-0.00
 149274,-0.00056665,-0.00044211,0.00069160,0.00008282,-0.00005283,-0.00
 009937,-0.00004577,0.00011209,-0.00001406,0.00003855,0.00011084,-0.000
 00382,0.00002882,-0.12524731,-0.21801000,-0.01345145,-0.01691100,0.017
 01165,-0.01172158,-0.01528778,-0.06433411,-0.02055355,0.16169349,0.270
 00377,0.00037561,0.00103303,0.00049582,0.00045018,-0.00070176,-0.00003
 739,-0.00012926,0.00175784,0.00043966,-0.00010201,0.00050885,0.0002185
 3,-0.00019230,-0.00055943,-0.00008890,-0.00137560,-0.00030699,-0.00054
 160,0.00001200,0.00002275,-0.00001386,-0.00011783,0.00003399,-0.000079
 68,-0.00004163,0.00001941,-0.00004555,-0.00210669,-0.00190492,-0.00427
 499,-0.00001352,-0.00180545,0.00051003,0.00000372,-0.00008788,-0.00013
 142,-0.00015913,0.00068647,-0.00013525,0.00043402,0.00002701,0.0001284
 1,0.00025129,-0.00025115,-0.00017721,-0.00025615,-0.00034387,0.0002962
 4,-0.00010002,-0.00005696,0.00004694,-0.00007171,-0.00001384,0.0000032
 6,0.00057346,0.00018944,0.00021895,0.00003222,0.00004952,0.00001822,-0
 .00029398,-0.00018866,-0.00039138,0.00006642,-0.00001517,0.00006598,0.
 00001454,0.00000507,0.00000155,0.00002915,-0.00000413,0.00001631,0.000
 01456,-0.00000293,-0.00000489,0.00023286,0.00006023,0.00017697,0.00020
 448,0.00083548,0.00037764,0.00026663,-0.00034870,-0.00009303,0.0000296
 8,0.00005935,0.00002502,-0.00006318,-0.00000495,0.00000105,-0.00007921
 ,0.00000299,-0.00001562,0.01315689,0.01522869,-0.05187114,-0.03408677,
 -0.02152026,0.00385425,-0.01542777,-0.03835357,0.00355558,0.03288802,0
 .04080132,0.04679379,-0.00608269,0.00282076,-0.00114595,0.00062668,-0.
 00836763,-0.00320931,-0.00268061,0.04453250,0.00978781,0.02017494,-0.0
 4581691,-0.01079906,-0.00065885,0.01609350,0.00355300,0.00975719,-0.00
 385421,0.00159349,-0.00015960,-0.00065767,-0.00017068,-0.00060987,0.00
 046107,0.00011973,-0.00046168,-0.00050071,-0.00018967,-0.23614437,-0.0
 8589835,-0.07424809,-0.24612754,0.10215995,-0.04366372,-0.01074440,0.0
 1609163,-0.00260364,-0.01981315,-0.01422854,-0.00696202,-0.00055293,0.
 00023318,0.00092078,0.00153043,-0.00104842,0.00049986,0.00042002,0.000
 46443,-0.00249553,-0.00018325,-0.00016360,0.00025862,-0.00004097,0.000
 06971,0.00012460,-0.00015871,0.00008218,0.00033829,-0.00004424,-0.0000
 7844,0.00015609,-0.00023497,-0.00018961,-0.00003268,0.00005086,0.00003
 653,0.00004961,0.00001616,0.00000842,0.00001197,-0.00001706,-0.0000058
 9,-0.00001765,0.00000994,-0.00001187,-0.00000678,0.00022683,0.00024561
 ,0.00002621,-0.00263421,-0.00365999,-0.00183668,-0.00106148,0.00133108
 ,0.00023754,-0.00002242,-0.00006664,-0.00002584,0.00021984,-0.00002428
 ,0.00018018,0.00030816,0.00007260,-0.00004617,0.01930166,0.02172983,-0
 .05329147,0.00222506,-0.00390708,0.00720002,-0.00900241,0.00435033,0.0
 1168937,-0.00676996,-0.00775255,0.00655952,0.54268665,0.00004785,-0.00
 281818,-0.00135113,-0.00609541,0.00013636,-0.00165600,0.02227481,-0.07
 043905,-0.01242709,-0.00425021,-0.05811685,-0.01997994,0.00571675,0.00
 434221,0.00236127,0.00526398,-0.00168377,0.00079072,-0.00013856,-0.000
 10713,-0.00005502,0.00072735,-0.00042024,0.00029660,0.00008483,0.00024
 100,0.00025236,-0.08974832,-0.15552884,-0.06598900,0.09988181,-0.17371
 883,-0.01408253,-0.01297109,0.01399152,0.00265793,0.00377679,0.0093043
 0,0.00530292,0.00292550,0.00008386,0.00133794,0.00000319,0.00100479,0.
 00049453,0.00225699,0.00037758,0.00038361,0.00012949,-0.00003950,-0.00
 003681,0.00000988,0.00004611,-0.00008215,0.00065562,0.00046542,-0.0003
 5566,0.00007201,0.00002447,0.00001398,0.00019789,-0.00055104,-0.000314
 31,-0.00006451,0.00000899,0.00003176,0.00000853,0.00000027,0.00000072,
 -0.00001231,0.00000227,0.00000404,-0.00001983,0.00001078,0.00000106,-0
 .00044328,0.00039255,0.00003273,0.00018954,-0.00054879,-0.00003532,-0.
 00030256,0.00021303,0.00008606,-0.00006584,-0.00010922,-0.00005134,0.0
 0007727,0.00007350,-0.00003756,0.00005567,0.00005973,0.00009914,0.0118
 4425,0.01512922,-0.05905605,0.00280514,-0.00213420,0.00783543,-0.00051
 529,0.00096036,0.00315573,-0.00473575,-0.00574072,0.00637191,-0.051403
 33,0.72223891,-0.00606474,-0.00426303,-0.00220396,-0.00311074,0.005375
 64,0.00270816,0.01338772,-0.01433362,0.00650652,-0.00889124,-0.0244122
 6,-0.00132082,-0.00151373,0.00322716,0.00421681,0.00513405,-0.00408364
 ,0.00099475,-0.00015595,-0.00031526,-0.00039144,-0.00025900,0.00059530
 ,-0.00034092,-0.00001326,0.00008169,-0.00030535,-0.11255965,-0.0985721
 9,-0.10416144,-0.03348107,-0.00735061,-0.04781484,-0.00272666,0.007659
 34,-0.00938371,-0.00112822,-0.00008824,-0.00233668,-0.00110542,-0.0004
 1766,-0.00050938,0.00089467,-0.00027741,0.00048432,0.00067444,-0.00060
 879,0.00054246,-0.00008608,-0.00018089,0.00005649,-0.00037204,-0.00013
 529,-0.00009807,0.00139730,0.00061317,0.00034542,0.00010798,0.00007763
 ,0.00012612,-0.00025109,-0.00078324,-0.00091333,0.00007755,0.00000555,
 0.00015497,0.00003116,0.00001033,0.00001268,0.00003246,-0.00000184,0.0
 0002263,0.00000502,-0.00000417,-0.00000947,0.00005722,0.00043544,0.000
 35606,-0.00057527,-0.00034884,-0.00075610,-0.00018403,0.00021779,-0.00
 020701,0.00000155,0.00000081,0.00000053,0.00004219,0.00008865,0.000096
 29,0.00005024,0.00003757,0.00000542,-0.00622445,-0.02029075,0.04093541
 ,-0.00109480,0.00088648,-0.00183196,0.00303281,-0.00047393,-0.00820268
 ,-0.00113408,-0.00060822,-0.00057855,0.16636185,0.27899632,0.20008605,
 -0.00088695,-0.00008713,-0.00028892,0.00118959,0.00186899,0.00008367,-
 0.00481437,0.00073072,-0.00174908,-0.00413623,-0.00256209,-0.00319719,
 0.00114865,-0.00047691,0.00021984,0.00003960,-0.00052416,-0.00009406,0
 .00001515,0.00003601,0.00018134,-0.00001309,-0.00003172,-0.00001707,0.
 00001668,0.00004874,-0.00004096,0.00811319,-0.01908240,-0.00661650,0.0
 0301747,0.02507808,0.01344438,0.00051895,-0.00037363,0.00027288,0.0013
 9380,-0.00051997,0.00172653,0.00025031,0.00019883,-0.00002763,-0.00012
 988,0.00068970,-0.00001518,-0.00026369,-0.00002956,-0.00015923,0.00006
 675,0.00004963,-0.00002797,-0.00006524,-0.00001539,0.00006251,-0.00001
 350,0.00007839,0.00016849,-0.00002333,-0.00000910,-0.00000826,-0.00004
 514,-0.00013157,-0.00013479,0.00001432,0.00001178,0.00001514,0.0000061
 3,0.00000242,0.00000172,0.00000069,-0.00000261,-0.00000077,-0.00000149
 ,-0.00000184,-0.00000040,0.00000777,0.00009232,0.00006103,0.00009383,-
 0.00014284,0.00000367,-0.00004473,0.00000214,-0.00001053,0.00001625,-0
 .00001090,-0.00000351,0.00000247,-0.00000163,0.00001212,0.00000982,0.0
 0000605,-0.00000901,0.00046186,0.00005752,0.00642420,-0.00048148,0.000
 09192,-0.00038617,-0.00000494,-0.00030112,-0.00025403,-0.00018641,-0.0
 0014980,-0.00097850,-0.05334906,0.01176115,-0.01035669,0.04807623,0.00
 037619,0.00016483,0.00024796,-0.00011088,-0.00041576,-0.00080674,0.002
 73985,0.00191007,0.00012905,-0.00187079,0.00043988,-0.00247518,0.00040
 706,-0.00072137,-0.00034598,-0.00074514,0.00011624,-0.00005614,-0.0000
 5493,-0.00010324,0.00008425,0.00000951,0.00001008,-0.00003813,0.000000
 78,-0.00002425,-0.00009073,0.00299075,-0.00870328,-0.00292326,-0.00242
 548,-0.01226252,-0.00442817,-0.00001274,-0.00016278,0.00047103,-0.0000
 2949,0.00028154,0.00144426,0.00016105,0.00005184,-0.00002671,-0.000444
 51,-0.00008383,-0.00021983,-0.00026583,-0.00013918,-0.00021045,0.00002
 320,0.00000321,-0.00001525,-0.00011098,-0.00001256,0.00003426,0.000002
 05,0.00004937,0.00016753,-0.00000490,0.00000827,-0.00000634,-0.0000292
 6,-0.00009443,-0.00010614,0.00001275,0.00000979,0.00001377,0.00000569,
 0.00000087,0.00000156,0.00000157,-0.00000069,0.00000179,0.00000011,-0.
 00000002,-0.00000191,0.00000744,0.00006762,0.00005249,0.00001733,-0.00
 019345,-0.00000273,-0.00003549,0.00001708,-0.00000022,0.00000878,-0.00
 000697,-0.00000582,0.00000453,-0.00001331,0.00000119,0.00000657,-0.000
 00921,-0.00000564,-0.00147251,0.00127700,0.00714665,-0.00023534,-0.000
 18250,-0.00105044,-0.00029246,-0.00010099,0.00025946,0.00086314,0.0003
 5664,-0.00122275,0.01685242,-0.29715087,-0.12075900,-0.01635003,0.3156
 1689,-0.00005350,0.00019014,-0.00010798,-0.00032029,-0.00035486,0.0014
 8466,-0.00304552,-0.00065925,0.00088381,-0.00103722,-0.00377275,0.0032
 2354,0.00040068,0.00033549,0.00105926,0.00046926,0.00003294,-0.0001604
 3,0.00010641,0.00013326,-0.00026410,0.00004135,-0.00009298,0.00006357,
 -0.00004064,-0.00004136,0.00014630,0.00783210,0.00203104,0.00117869,-0
 .00107377,0.01217209,0.00072626,0.00043960,-0.00018762,-0.00074151,0.0
 0081396,0.00010982,-0.00197244,-0.00023564,0.00003288,0.00002075,-0.00
 039912,0.00031695,0.00001018,0.00019819,0.00025714,0.00015712,0.000068
 18,0.00003914,-0.00004009,0.00007091,-0.00001274,-0.00000582,0.0000361
 3,0.00002062,-0.00007674,-0.00000340,-0.00001132,0.00000923,0.00006725
 ,-0.00002832,0.00000478,-0.00001055,-0.00000198,-0.00000226,-0.0000023
 5,0.00000054,-0.00000033,-0.00000291,0.00000048,-0.00000296,-0.0000037
 6,-0.00000010,0.00000184,-0.00007171,0.00002862,-0.00001114,0.00002423
 ,-0.00014964,-0.00016957,-0.00005247,0.00008131,-0.00001334,-0.0000055
 4,-0.00001854,0.00000684,0.00001359,0.00000132,0.00000774,0.00001255,-
 0.00000150,0.00000413,0.00289136,-0.00237889,-0.01507217,-0.00021417,0
 .00069435,0.00051233,0.00023692,0.00068108,-0.00019920,0.00007457,0.00
 080717,0.00123626,-0.00892360,-0.13499685,-0.07628538,0.00169892,0.124
 74231,0.08438818\\-0.00000154,-0.00000184,-0.00000075,-0.00000055,-0.0
 0000209,-0.00000048,0.00000034,-0.00000146,-0.00000003,-0.00000026,-0.
 00000015,0.00000005,-0.00000090,-0.00000040,-0.00000060,-0.00000131,-0
 .00000059,-0.00000069,-0.00000178,-0.00000205,-0.00000112,-0.00000066,
 -0.00000287,-0.00000050,-0.00000059,0.00000056,-0.00000026,0.00000074,
 -0.00000071,0.00000041,0.00000078,-0.00000191,0.00000051,0.00000110,-0
 .00000246,0.00000031,0.00000118,0.00000052,0.00000061,0.00000072,0.000
 00097,0.00000042,0.00000162,0.00000045,0.00000101,0.00000055,0.0000004
 8,0.00000038,0.00000002,0.00000066,0.00000001,0.00000092,0.00000038,0.
 00000044,0.00000085,0.00000171,0.00000054,0.00000097,0.00000199,0.0000
 0061,0.00000026,0.00000240,0.00000031,0.00000025,0.00000309,0.00000035
 ,-0.00000033,0.00000358,0.00000004,0.00000061,0.00000348,0.00000046,0.
 00000063,0.00000330,0.00000052,-0.00000031,0.00000190,-0.00000012,-0.0
 0000195,-0.00000010,-0.00000099,-0.00000273,-0.00000063,-0.00000153,-0
 .00000320,-0.00000004,-0.00000177,-0.00000284,-0.00000105,-0.00000155,
 -0.00000263,-0.00000082,-0.00000150,0.00000124,-0.00000136,0.00000072,
 0.00000179,-0.00000020,0.00000081,0.00000098,-0.00000089,0.00000062,0.
 00000312,-0.00000103,0.00000143,0.00000114,-0.00000161,0.00000034,0.00
 000178,-0.00000119,0.00000098\\\@


 A MAN IS NEVER SO BRILLIANT AS WHEN HE TAKES THE WORDS RIGHT OUT
 OF YOUR MOUTH. -- ARNOT SHEPPARD, JR.
 Job cpu time:       0 days  3 hours 30 minutes 53.0 seconds.
 Elapsed time:       0 days  0 hours 13 minutes 14.1 seconds.
 File lengths (MBytes):  RWF=   1181 Int=      0 D2E=      0 Chk=     24 Scr=      1
 Normal termination of Gaussian 16 at Fri Mar 28 09:35:11 2025.
