 Entering Gaussian System, Link 0=g16
 Initial command:
 /apps/brussel/RL8/zen4/software/Gaussian/G16.A.03-intel-2022a/g16/l1.exe "/tmp/10021325/Gau-3736307.inp" -scrdir="/tmp/10021325/"
 Entering Link 1 = /apps/brussel/RL8/zen4/software/Gaussian/G16.A.03-intel-2022a/g16/l1.exe.bin PID=   3736308.
  
 Copyright (c) 1988,1990,1992,1993,1995,1998,2003,2009,2016,
            Gaussian, Inc.  All Rights Reserved.
  
 This is part of the Gaussian(R) 16 program.  It is based on
 the Gaussian(R) 09 system (copyright 2009, Gaussian, Inc.),
 the Gaussian(R) 03 system (copyright 2003, Gaussian, Inc.),
 the Gaussian(R) 98 system (copyright 1998, Gaussian, Inc.),
 the Gaussian(R) 94 system (copyright 1995, Gaussian, Inc.),
 the Gaussian 92(TM) system (copyright 1992, Gaussian, Inc.),
 the Gaussian 90(TM) system (copyright 1990, Gaussian, Inc.),
 the Gaussian 88(TM) system (copyright 1988, Gaussian, Inc.),
 the Gaussian 86(TM) system (copyright 1986, Carnegie Mellon
 University), and the Gaussian 82(TM) system (copyright 1983,
 Carnegie Mellon University). Gaussian is a federally registered
 trademark of Gaussian, Inc.
  
 This software contains proprietary and confidential information,
 including trade secrets, belonging to Gaussian, Inc.
  
 This software is provided under written license and may be
 used, copied, transmitted, or stored only in accord with that
 written license.
  
 The following legend is applicable only to US Government
 contracts under FAR:
  
                    RESTRICTED RIGHTS LEGEND
  
 Use, reproduction and disclosure by the US Government is
 subject to restrictions as set forth in subparagraphs (a)
 and (c) of the Commercial Computer Software - Restricted
 Rights clause in FAR 52.227-19.
  
 Gaussian, Inc.
 340 Quinnipiac St., Bldg. 40, Wallingford CT 06492
  
  
 ---------------------------------------------------------------
 Warning -- This program may not be used in any manner that
 competes with the business of Gaussian, Inc. or will provide
 assistance to any competitor of Gaussian, Inc.  The licensee
 of this program is prohibited from giving any competitor of
 Gaussian, Inc. access to this program.  By using this program,
 the user acknowledges that Gaussian, Inc. is engaged in the
 business of creating and licensing software in the field of
 computational chemistry and represents and warrants to the
 licensee that it is not a competitor of Gaussian, Inc. and that
 it will not use this program in any manner prohibited above.
 ---------------------------------------------------------------
  

 Cite this work as:
 Gaussian 16, Revision A.03,
 M. J. Frisch, G. W. Trucks, H. B. Schlegel, G. E. Scuseria, 
 M. A. Robb, J. R. Cheeseman, G. Scalmani, V. Barone, 
 G. A. Petersson, H. Nakatsuji, X. Li, M. Caricato, A. V. Marenich, 
 J. Bloino, B. G. Janesko, R. Gomperts, B. Mennucci, H. P. Hratchian, 
 J. V. Ortiz, A. F. Izmaylov, J. L. Sonnenberg, D. Williams-Young, 
 F. Ding, F. Lipparini, F. Egidi, J. Goings, B. Peng, A. Petrone, 
 T. Henderson, D. Ranasinghe, V. G. Zakrzewski, J. Gao, N. Rega, 
 G. Zheng, W. Liang, M. Hada, M. Ehara, K. Toyota, R. Fukuda, 
 J. Hasegawa, M. Ishida, T. Nakajima, Y. Honda, O. Kitao, H. Nakai, 
 T. Vreven, K. Throssell, J. A. Montgomery, Jr., J. E. Peralta, 
 F. Ogliaro, M. J. Bearpark, J. J. Heyd, E. N. Brothers, K. N. Kudin, 
 V. N. Staroverov, T. A. Keith, R. Kobayashi, J. Normand, 
 K. Raghavachari, A. P. Rendell, J. C. Burant, S. S. Iyengar, 
 J. Tomasi, M. Cossi, J. M. Millam, M. Klene, C. Adamo, R. Cammi, 
 J. W. Ochterski, R. L. Martin, K. Morokuma, O. Farkas, 
 J. B. Foresman, and D. J. Fox, Gaussian, Inc., Wallingford CT, 2016.
 
 ******************************************
 Gaussian 16:  AS64L-G16RevA.03 25-Dec-2016
                28-Oct-2024 
 ******************************************
 %mem=16000MB
 %nprocshared=4
 Will use up to    4 processors via shared memory.
 %chk=FulveneCyanoethyleneTS.chk
 ----------------------------------------------------------------------
 # opt=(calcfc,ts,noeigentest) freq cc-pvdz empiricaldispersion=gd3 m06
 2x
 ----------------------------------------------------------------------
 1/5=1,10=4,11=1,18=20,26=3,38=1/1,3;
 2/9=110,12=2,17=6,18=5,40=1/2;
 3/5=16,11=2,25=1,30=1,71=2,74=-55,124=31,140=1/1,2,3;
 4//1;
 5/5=2,38=5/2;
 8/6=4,10=90,11=11/1;
 11/6=1,8=1,9=11,15=111,16=1/1,2,10;
 10/6=1,13=1/2;
 6/7=2,8=2,9=2,10=2,28=1/1;
 7/10=1,18=20,25=1/1,2,3,16;
 1/5=1,10=4,11=1,18=20,26=3/3(2);
 2/9=110/2;
 99//99;
 2/9=110/2;
 3/5=16,11=2,25=1,30=1,71=1,74=-55,124=31/1,2,3;
 4/5=5,16=3,69=1/1;
 5/5=2,38=5/2;
 7//1,2,3,16;
 1/5=1,11=1,18=20,26=3/3(-5);
 2/9=110/2;
 6/7=2,8=2,9=2,10=2,19=2,28=1/1;
 99/9=1/99;
 ----------------------
 FulveneCyanoethyleneTS
 ----------------------
 Symbolic Z-matrix:
 Charge =  0 Multiplicity = 1
 C                     0.46032   1.29331   1.27558 
 C                     0.28082  -0.97329   1.05017 
 C                    -0.77156  -0.35337  -0.65306 
 C                    -0.5413    0.83231   2.1737 
 C                    -0.64     -0.54003   2.04956 
 H                     0.80167   2.32631   1.2257 
 H                     0.48099  -2.02156   0.83138 
 C                     0.10447  -0.96661  -1.62564 
 N                     0.84937  -1.45348  -2.36607 
 H                    -1.3899   -1.17104   2.52272 
 H                    -1.20481   1.47398   2.74982 
 C                    -0.70245   1.09004  -0.54914 
 C                     0.25098   1.76922  -1.3961 
 N                     1.05595   2.31412  -2.02656 
 C                     1.2485    0.1249    0.86587 
 C                     2.50423   0.08297   0.36273 
 C                    -2.03993  -1.1364   -0.46922 
 O                    -2.18873  -2.25774  -0.87851 
 O                    -2.94493  -0.46121   0.2399 
 C                    -4.17683  -1.15079   0.46605 
 H                    -4.81619  -0.44022   0.99718 
 H                    -4.62639  -1.44419  -0.49067 
 C                    -1.85137   1.90772  -0.23744 
 N                    -2.71591   2.63134   0.02755 
 C                     3.34098   1.31852   0.2146 
 H                     4.1801    1.29506   0.92724 
 H                     3.77143   1.34614  -0.7981 
 H                     2.77518   2.24269   0.36892 
 C                     3.15522  -1.20405  -0.06565 
 H                     2.46468  -2.04717   0.05724 
 H                     3.3465   -1.1231   -1.14912 
 C                     4.46885  -1.48935   0.66945 
 H                     5.23025  -0.72732   0.45247 
 H                     4.31304  -1.5197    1.75801 
 C                     5.03433  -2.85185   0.22739 
 O                     5.12366  -2.89065  -1.19929 
 O                     4.16872  -3.89651   0.67938 
 C                     4.94393  -5.05642   0.99334 
 H                     4.32126  -5.78246   1.47299 
 H                     5.3464   -5.47093   0.09273 
 H                     5.74417  -4.78378   1.64922 
 C                    -3.92991  -2.41438   1.31102 
 H                    -4.74035  -2.54902   1.99655 
 H                    -3.86206  -3.26633   0.66721 
 H                    -3.01576  -2.30574   1.85638 
 
 Add virtual bond connecting atoms C3         and C2         Dist= 3.96D+00.
 Add virtual bond connecting atoms C12        and C1         Dist= 4.11D+00.
 Add virtual bond connecting atoms H45        and H10        Dist= 3.95D+00.

 GradGradGradGradGradGradGradGradGradGradGradGradGradGradGradGradGradGrad
 Berny optimization.
 Initialization pass.
                           ----------------------------
                           !    Initial Parameters    !
                           ! (Angstroms and Degrees)  !
 --------------------------                            --------------------------
 ! Name  Definition              Value          Derivative Info.                !
 --------------------------------------------------------------------------------
 ! R1    R(1,4)                  1.4221         calculate D2E/DX2 analytically  !
 ! R2    R(1,6)                  1.0891         calculate D2E/DX2 analytically  !
 ! R3    R(1,12)                 2.1732         calculate D2E/DX2 analytically  !
 ! R4    R(1,15)                 1.4677         calculate D2E/DX2 analytically  !
 ! R5    R(2,3)                  2.0959         calculate D2E/DX2 analytically  !
 ! R6    R(2,5)                  1.4263         calculate D2E/DX2 analytically  !
 ! R7    R(2,7)                  1.0894         calculate D2E/DX2 analytically  !
 ! R8    R(2,15)                 1.4753         calculate D2E/DX2 analytically  !
 ! R9    R(3,8)                  1.4455         calculate D2E/DX2 analytically  !
 ! R10   R(3,12)                 1.4488         calculate D2E/DX2 analytically  !
 ! R11   R(3,17)                 1.5019         calculate D2E/DX2 analytically  !
 ! R12   R(4,5)                  1.3815         calculate D2E/DX2 analytically  !
 ! R13   R(4,11)                 1.0881         calculate D2E/DX2 analytically  !
 ! R14   R(5,10)                 1.0883         calculate D2E/DX2 analytically  !
 ! R15   R(8,9)                  1.1577         calculate D2E/DX2 analytically  !
 ! R16   R(10,45)                2.0916         calculate D2E/DX2 analytically  !
 ! R17   R(12,13)                1.4449         calculate D2E/DX2 analytically  !
 ! R18   R(12,23)                1.4442         calculate D2E/DX2 analytically  !
 ! R19   R(13,14)                1.1586         calculate D2E/DX2 analytically  !
 ! R20   R(15,16)                1.3534         calculate D2E/DX2 analytically  !
 ! R21   R(16,25)                1.4996         calculate D2E/DX2 analytically  !
 ! R22   R(16,29)                1.5046         calculate D2E/DX2 analytically  !
 ! R23   R(17,18)                1.2029         calculate D2E/DX2 analytically  !
 ! R24   R(17,19)                1.3333         calculate D2E/DX2 analytically  !
 ! R25   R(19,20)                1.4298         calculate D2E/DX2 analytically  !
 ! R26   R(20,21)                1.0935         calculate D2E/DX2 analytically  !
 ! R27   R(20,22)                1.097          calculate D2E/DX2 analytically  !
 ! R28   R(20,42)                1.54           calculate D2E/DX2 analytically  !
 ! R29   R(23,24)                1.1581         calculate D2E/DX2 analytically  !
 ! R30   R(25,26)                1.1012         calculate D2E/DX2 analytically  !
 ! R31   R(25,27)                1.1007         calculate D2E/DX2 analytically  !
 ! R32   R(25,28)                1.0945         calculate D2E/DX2 analytically  !
 ! R33   R(29,30)                1.0967         calculate D2E/DX2 analytically  !
 ! R34   R(29,31)                1.1032         calculate D2E/DX2 analytically  !
 ! R35   R(29,32)                1.5321         calculate D2E/DX2 analytically  !
 ! R36   R(32,33)                1.0989         calculate D2E/DX2 analytically  !
 ! R37   R(32,34)                1.1001         calculate D2E/DX2 analytically  !
 ! R38   R(32,35)                1.54           calculate D2E/DX2 analytically  !
 ! R39   R(35,36)                1.43           calculate D2E/DX2 analytically  !
 ! R40   R(35,37)                1.43           calculate D2E/DX2 analytically  !
 ! R41   R(37,38)                1.43           calculate D2E/DX2 analytically  !
 ! R42   R(38,39)                1.07           calculate D2E/DX2 analytically  !
 ! R43   R(38,40)                1.07           calculate D2E/DX2 analytically  !
 ! R44   R(38,41)                1.07           calculate D2E/DX2 analytically  !
 ! R45   R(42,43)                1.07           calculate D2E/DX2 analytically  !
 ! R46   R(42,44)                1.07           calculate D2E/DX2 analytically  !
 ! R47   R(42,45)                1.07           calculate D2E/DX2 analytically  !
 ! A1    A(4,1,6)              123.8597         calculate D2E/DX2 analytically  !
 ! A2    A(4,1,12)              97.0709         calculate D2E/DX2 analytically  !
 ! A3    A(4,1,15)             107.2445         calculate D2E/DX2 analytically  !
 ! A4    A(6,1,12)             102.5892         calculate D2E/DX2 analytically  !
 ! A5    A(6,1,15)             125.0277         calculate D2E/DX2 analytically  !
 ! A6    A(12,1,15)             88.7668         calculate D2E/DX2 analytically  !
 ! A7    A(3,2,5)               98.94           calculate D2E/DX2 analytically  !
 ! A8    A(3,2,7)              102.3369         calculate D2E/DX2 analytically  !
 ! A9    A(3,2,15)              90.4387         calculate D2E/DX2 analytically  !
 ! A10   A(5,2,7)              123.4792         calculate D2E/DX2 analytically  !
 ! A11   A(5,2,15)             106.5519         calculate D2E/DX2 analytically  !
 ! A12   A(7,2,15)             124.7973         calculate D2E/DX2 analytically  !
 ! A13   A(2,3,8)               96.7189         calculate D2E/DX2 analytically  !
 ! A14   A(2,3,12)             102.2653         calculate D2E/DX2 analytically  !
 ! A15   A(2,3,17)              99.8092         calculate D2E/DX2 analytically  !
 ! A16   A(8,3,12)             116.2328         calculate D2E/DX2 analytically  !
 ! A17   A(8,3,17)             111.9            calculate D2E/DX2 analytically  !
 ! A18   A(12,3,17)            123.4306         calculate D2E/DX2 analytically  !
 ! A19   A(1,4,5)              108.3972         calculate D2E/DX2 analytically  !
 ! A20   A(1,4,11)             124.9397         calculate D2E/DX2 analytically  !
 ! A21   A(5,4,11)             126.146          calculate D2E/DX2 analytically  !
 ! A22   A(2,5,4)              108.5775         calculate D2E/DX2 analytically  !
 ! A23   A(2,5,10)             124.9841         calculate D2E/DX2 analytically  !
 ! A24   A(4,5,10)             125.884          calculate D2E/DX2 analytically  !
 ! A25   A(5,10,45)            135.3694         calculate D2E/DX2 analytically  !
 ! A26   A(1,12,3)             100.3075         calculate D2E/DX2 analytically  !
 ! A27   A(1,12,13)             95.4601         calculate D2E/DX2 analytically  !
 ! A28   A(1,12,23)            101.0387         calculate D2E/DX2 analytically  !
 ! A29   A(3,12,13)            117.2416         calculate D2E/DX2 analytically  !
 ! A30   A(3,12,23)            122.7929         calculate D2E/DX2 analytically  !
 ! A31   A(13,12,23)           112.664          calculate D2E/DX2 analytically  !
 ! A32   A(1,15,2)             101.8575         calculate D2E/DX2 analytically  !
 ! A33   A(1,15,16)            128.8045         calculate D2E/DX2 analytically  !
 ! A34   A(2,15,16)            129.196          calculate D2E/DX2 analytically  !
 ! A35   A(15,16,25)           121.9323         calculate D2E/DX2 analytically  !
 ! A36   A(15,16,29)           122.2618         calculate D2E/DX2 analytically  !
 ! A37   A(25,16,29)           115.8012         calculate D2E/DX2 analytically  !
 ! A38   A(3,17,18)            123.2855         calculate D2E/DX2 analytically  !
 ! A39   A(3,17,19)            111.9808         calculate D2E/DX2 analytically  !
 ! A40   A(18,17,19)           124.6836         calculate D2E/DX2 analytically  !
 ! A41   A(17,19,20)           115.1318         calculate D2E/DX2 analytically  !
 ! A42   A(19,20,21)           105.4966         calculate D2E/DX2 analytically  !
 ! A43   A(19,20,22)           110.129          calculate D2E/DX2 analytically  !
 ! A44   A(19,20,42)           110.1433         calculate D2E/DX2 analytically  !
 ! A45   A(21,20,22)           110.9632         calculate D2E/DX2 analytically  !
 ! A46   A(21,20,42)           111.1259         calculate D2E/DX2 analytically  !
 ! A47   A(22,20,42)           108.9515         calculate D2E/DX2 analytically  !
 ! A48   A(16,25,26)           110.104          calculate D2E/DX2 analytically  !
 ! A49   A(16,25,27)           109.2545         calculate D2E/DX2 analytically  !
 ! A50   A(16,25,28)           113.1611         calculate D2E/DX2 analytically  !
 ! A51   A(26,25,27)           107.3346         calculate D2E/DX2 analytically  !
 ! A52   A(26,25,28)           108.7034         calculate D2E/DX2 analytically  !
 ! A53   A(27,25,28)           108.1            calculate D2E/DX2 analytically  !
 ! A54   A(16,29,30)           110.6876         calculate D2E/DX2 analytically  !
 ! A55   A(16,29,31)           106.9704         calculate D2E/DX2 analytically  !
 ! A56   A(16,29,32)           113.182          calculate D2E/DX2 analytically  !
 ! A57   A(30,29,31)           105.9998         calculate D2E/DX2 analytically  !
 ! A58   A(30,29,32)           110.0555         calculate D2E/DX2 analytically  !
 ! A59   A(31,29,32)           109.6469         calculate D2E/DX2 analytically  !
 ! A60   A(29,32,33)           111.7288         calculate D2E/DX2 analytically  !
 ! A61   A(29,32,34)           111.0064         calculate D2E/DX2 analytically  !
 ! A62   A(29,32,35)           109.9896         calculate D2E/DX2 analytically  !
 ! A63   A(33,32,34)           108.22           calculate D2E/DX2 analytically  !
 ! A64   A(33,32,35)           107.6039         calculate D2E/DX2 analytically  !
 ! A65   A(34,32,35)           108.1587         calculate D2E/DX2 analytically  !
 ! A66   A(32,35,36)           109.4712         calculate D2E/DX2 analytically  !
 ! A67   A(32,35,37)           109.4712         calculate D2E/DX2 analytically  !
 ! A68   A(36,35,37)           109.4712         calculate D2E/DX2 analytically  !
 ! A69   A(35,37,38)           109.5            calculate D2E/DX2 analytically  !
 ! A70   A(37,38,39)           109.4712         calculate D2E/DX2 analytically  !
 ! A71   A(37,38,40)           109.4712         calculate D2E/DX2 analytically  !
 ! A72   A(37,38,41)           109.4712         calculate D2E/DX2 analytically  !
 ! A73   A(39,38,40)           109.4713         calculate D2E/DX2 analytically  !
 ! A74   A(39,38,41)           109.4712         calculate D2E/DX2 analytically  !
 ! A75   A(40,38,41)           109.4712         calculate D2E/DX2 analytically  !
 ! A76   A(20,42,43)           109.4712         calculate D2E/DX2 analytically  !
 ! A77   A(20,42,44)           109.4712         calculate D2E/DX2 analytically  !
 ! A78   A(20,42,45)           109.4712         calculate D2E/DX2 analytically  !
 ! A79   A(43,42,44)           109.4713         calculate D2E/DX2 analytically  !
 ! A80   A(43,42,45)           109.4712         calculate D2E/DX2 analytically  !
 ! A81   A(44,42,45)           109.4712         calculate D2E/DX2 analytically  !
 ! A82   A(10,45,42)           151.8294         calculate D2E/DX2 analytically  !
 ! A83   L(3,8,9,7,-1)         177.9227         calculate D2E/DX2 analytically  !
 ! A84   L(12,13,14,6,-1)      177.147          calculate D2E/DX2 analytically  !
 ! A85   L(12,23,24,11,-1)     179.1638         calculate D2E/DX2 analytically  !
 ! A86   L(3,8,9,7,-2)         182.118          calculate D2E/DX2 analytically  !
 ! A87   L(12,13,14,6,-2)      178.6446         calculate D2E/DX2 analytically  !
 ! A88   L(12,23,24,11,-2)     175.6337         calculate D2E/DX2 analytically  !
 ! D1    D(6,1,4,5)           -174.7609         calculate D2E/DX2 analytically  !
 ! D2    D(6,1,4,11)            13.0757         calculate D2E/DX2 analytically  !
 ! D3    D(12,1,4,5)            74.8918         calculate D2E/DX2 analytically  !
 ! D4    D(12,1,4,11)          -97.2715         calculate D2E/DX2 analytically  !
 ! D5    D(15,1,4,5)           -16.0132         calculate D2E/DX2 analytically  !
 ! D6    D(15,1,4,11)          171.8235         calculate D2E/DX2 analytically  !
 ! D7    D(4,1,12,3)           -70.0407         calculate D2E/DX2 analytically  !
 ! D8    D(4,1,12,13)          170.9628         calculate D2E/DX2 analytically  !
 ! D9    D(4,1,12,23)           56.5677         calculate D2E/DX2 analytically  !
 ! D10   D(6,1,12,3)           162.877          calculate D2E/DX2 analytically  !
 ! D11   D(6,1,12,13)           43.8804         calculate D2E/DX2 analytically  !
 ! D12   D(6,1,12,23)          -70.5146         calculate D2E/DX2 analytically  !
 ! D13   D(15,1,12,3)           37.1841         calculate D2E/DX2 analytically  !
 ! D14   D(15,1,12,13)         -81.8124         calculate D2E/DX2 analytically  !
 ! D15   D(15,1,12,23)         163.7925         calculate D2E/DX2 analytically  !
 ! D16   D(4,1,15,2)            25.571          calculate D2E/DX2 analytically  !
 ! D17   D(4,1,15,16)         -158.4937         calculate D2E/DX2 analytically  !
 ! D18   D(6,1,15,2)          -175.9954         calculate D2E/DX2 analytically  !
 ! D19   D(6,1,15,16)           -0.06           calculate D2E/DX2 analytically  !
 ! D20   D(12,1,15,2)          -71.4504         calculate D2E/DX2 analytically  !
 ! D21   D(12,1,15,16)         104.485          calculate D2E/DX2 analytically  !
 ! D22   D(5,2,3,8)           -172.8281         calculate D2E/DX2 analytically  !
 ! D23   D(5,2,3,12)            68.4157         calculate D2E/DX2 analytically  !
 ! D24   D(5,2,3,17)           -59.1556         calculate D2E/DX2 analytically  !
 ! D25   D(7,2,3,8)            -45.5256         calculate D2E/DX2 analytically  !
 ! D26   D(7,2,3,12)          -164.2818         calculate D2E/DX2 analytically  !
 ! D27   D(7,2,3,17)            68.1469         calculate D2E/DX2 analytically  !
 ! D28   D(15,2,3,8)            80.3379         calculate D2E/DX2 analytically  !
 ! D29   D(15,2,3,12)          -38.4184         calculate D2E/DX2 analytically  !
 ! D30   D(15,2,3,17)         -165.9896         calculate D2E/DX2 analytically  !
 ! D31   D(3,2,5,4)            -75.5012         calculate D2E/DX2 analytically  !
 ! D32   D(3,2,5,10)            96.3648         calculate D2E/DX2 analytically  !
 ! D33   D(7,2,5,4)            173.1926         calculate D2E/DX2 analytically  !
 ! D34   D(7,2,5,10)           -14.9413         calculate D2E/DX2 analytically  !
 ! D35   D(15,2,5,4)            17.6424         calculate D2E/DX2 analytically  !
 ! D36   D(15,2,5,10)         -170.4916         calculate D2E/DX2 analytically  !
 ! D37   D(3,2,15,1)            73.3859         calculate D2E/DX2 analytically  !
 ! D38   D(3,2,15,16)         -102.5269         calculate D2E/DX2 analytically  !
 ! D39   D(5,2,15,1)           -26.0764         calculate D2E/DX2 analytically  !
 ! D40   D(5,2,15,16)          158.0108         calculate D2E/DX2 analytically  !
 ! D41   D(7,2,15,1)           178.7836         calculate D2E/DX2 analytically  !
 ! D42   D(7,2,15,16)            2.8708         calculate D2E/DX2 analytically  !
 ! D43   D(2,3,12,1)             0.7397         calculate D2E/DX2 analytically  !
 ! D44   D(2,3,12,13)          102.4177         calculate D2E/DX2 analytically  !
 ! D45   D(2,3,12,23)         -109.6668         calculate D2E/DX2 analytically  !
 ! D46   D(8,3,12,1)          -103.1828         calculate D2E/DX2 analytically  !
 ! D47   D(8,3,12,13)           -1.5047         calculate D2E/DX2 analytically  !
 ! D48   D(8,3,12,23)          146.4107         calculate D2E/DX2 analytically  !
 ! D49   D(17,3,12,1)          111.3755         calculate D2E/DX2 analytically  !
 ! D50   D(17,3,12,13)        -146.9465         calculate D2E/DX2 analytically  !
 ! D51   D(17,3,12,23)           0.969          calculate D2E/DX2 analytically  !
 ! D52   D(2,3,17,18)          -87.8704         calculate D2E/DX2 analytically  !
 ! D53   D(2,3,17,19)           89.6625         calculate D2E/DX2 analytically  !
 ! D54   D(8,3,17,18)           13.5188         calculate D2E/DX2 analytically  !
 ! D55   D(8,3,17,19)         -168.9483         calculate D2E/DX2 analytically  !
 ! D56   D(12,3,17,18)         160.2619         calculate D2E/DX2 analytically  !
 ! D57   D(12,3,17,19)         -22.2053         calculate D2E/DX2 analytically  !
 ! D58   D(1,4,5,2)             -1.0992         calculate D2E/DX2 analytically  !
 ! D59   D(1,4,5,10)          -172.8733         calculate D2E/DX2 analytically  !
 ! D60   D(11,4,5,2)           170.9446         calculate D2E/DX2 analytically  !
 ! D61   D(11,4,5,10)           -0.8294         calculate D2E/DX2 analytically  !
 ! D62   D(2,5,10,45)          -59.2606         calculate D2E/DX2 analytically  !
 ! D63   D(4,5,10,45)          111.2113         calculate D2E/DX2 analytically  !
 ! D64   D(5,10,45,42)         -52.6129         calculate D2E/DX2 analytically  !
 ! D65   D(1,15,16,25)           3.4741         calculate D2E/DX2 analytically  !
 ! D66   D(1,15,16,29)        -177.3498         calculate D2E/DX2 analytically  !
 ! D67   D(2,15,16,25)         178.3387         calculate D2E/DX2 analytically  !
 ! D68   D(2,15,16,29)          -2.4852         calculate D2E/DX2 analytically  !
 ! D69   D(15,16,25,26)        110.9763         calculate D2E/DX2 analytically  !
 ! D70   D(15,16,25,27)       -131.3822         calculate D2E/DX2 analytically  !
 ! D71   D(15,16,25,28)        -10.8937         calculate D2E/DX2 analytically  !
 ! D72   D(29,16,25,26)        -68.2498         calculate D2E/DX2 analytically  !
 ! D73   D(29,16,25,27)         49.3917         calculate D2E/DX2 analytically  !
 ! D74   D(29,16,25,28)        169.8801         calculate D2E/DX2 analytically  !
 ! D75   D(15,16,29,30)          2.0146         calculate D2E/DX2 analytically  !
 ! D76   D(15,16,29,31)        117.0566         calculate D2E/DX2 analytically  !
 ! D77   D(15,16,29,32)       -122.0738         calculate D2E/DX2 analytically  !
 ! D78   D(25,16,29,30)       -178.762          calculate D2E/DX2 analytically  !
 ! D79   D(25,16,29,31)        -63.7201         calculate D2E/DX2 analytically  !
 ! D80   D(25,16,29,32)         57.1496         calculate D2E/DX2 analytically  !
 ! D81   D(3,17,19,20)        -179.4638         calculate D2E/DX2 analytically  !
 ! D82   D(18,17,19,20)         -1.9719         calculate D2E/DX2 analytically  !
 ! D83   D(17,19,20,21)       -176.4587         calculate D2E/DX2 analytically  !
 ! D84   D(17,19,20,22)        -56.6544         calculate D2E/DX2 analytically  !
 ! D85   D(17,19,20,42)         63.5358         calculate D2E/DX2 analytically  !
 ! D86   D(19,20,42,43)        142.2464         calculate D2E/DX2 analytically  !
 ! D87   D(19,20,42,44)        -97.7536         calculate D2E/DX2 analytically  !
 ! D88   D(19,20,42,45)         22.2464         calculate D2E/DX2 analytically  !
 ! D89   D(21,20,42,43)         25.7064         calculate D2E/DX2 analytically  !
 ! D90   D(21,20,42,44)        145.7064         calculate D2E/DX2 analytically  !
 ! D91   D(21,20,42,45)        -94.2936         calculate D2E/DX2 analytically  !
 ! D92   D(22,20,42,43)        -96.8552         calculate D2E/DX2 analytically  !
 ! D93   D(22,20,42,44)         23.1448         calculate D2E/DX2 analytically  !
 ! D94   D(22,20,42,45)        143.1448         calculate D2E/DX2 analytically  !
 ! D95   D(16,29,32,33)        -63.3583         calculate D2E/DX2 analytically  !
 ! D96   D(16,29,32,34)         57.5439         calculate D2E/DX2 analytically  !
 ! D97   D(16,29,32,35)        177.2084         calculate D2E/DX2 analytically  !
 ! D98   D(30,29,32,33)        172.2087         calculate D2E/DX2 analytically  !
 ! D99   D(30,29,32,34)        -66.8891         calculate D2E/DX2 analytically  !
 ! D100  D(30,29,32,35)         52.7755         calculate D2E/DX2 analytically  !
 ! D101  D(31,29,32,33)         55.9838         calculate D2E/DX2 analytically  !
 ! D102  D(31,29,32,34)        176.886          calculate D2E/DX2 analytically  !
 ! D103  D(31,29,32,35)        -63.4495         calculate D2E/DX2 analytically  !
 ! D104  D(29,32,35,36)         52.9348         calculate D2E/DX2 analytically  !
 ! D105  D(29,32,35,37)        -67.0652         calculate D2E/DX2 analytically  !
 ! D106  D(33,32,35,36)        -68.9843         calculate D2E/DX2 analytically  !
 ! D107  D(33,32,35,37)        171.0157         calculate D2E/DX2 analytically  !
 ! D108  D(34,32,35,36)        174.3177         calculate D2E/DX2 analytically  !
 ! D109  D(34,32,35,37)         54.3177         calculate D2E/DX2 analytically  !
 ! D110  D(32,35,37,38)       -146.6521         calculate D2E/DX2 analytically  !
 ! D111  D(36,35,37,38)         93.3479         calculate D2E/DX2 analytically  !
 ! D112  D(35,37,38,39)        171.2416         calculate D2E/DX2 analytically  !
 ! D113  D(35,37,38,40)        -68.7584         calculate D2E/DX2 analytically  !
 ! D114  D(35,37,38,41)         51.2416         calculate D2E/DX2 analytically  !
 ! D115  D(20,42,45,10)          9.0612         calculate D2E/DX2 analytically  !
 ! D116  D(43,42,45,10)       -110.9388         calculate D2E/DX2 analytically  !
 ! D117  D(44,42,45,10)        129.0611         calculate D2E/DX2 analytically  !
 --------------------------------------------------------------------------------
 Trust Radius=3.00D-01 FncErr=1.00D-07 GrdErr=1.00D-06 EigMax=2.50D+02 EigMin=1.00D-04
 Number of steps in this run=    262 maximum allowed number of steps=    270.
 Search for a saddle point of order  1.
 GradGradGradGradGradGradGradGradGradGradGradGradGradGradGradGradGradGrad

                          Input orientation:                          
 ---------------------------------------------------------------------
 Center     Atomic      Atomic             Coordinates (Angstroms)
 Number     Number       Type             X           Y           Z
 ---------------------------------------------------------------------
      1          6           0        0.460323    1.293312    1.275580
      2          6           0        0.280817   -0.973285    1.050168
      3          6           0       -0.771558   -0.353371   -0.653055
      4          6           0       -0.541299    0.832305    2.173697
      5          6           0       -0.640002   -0.540025    2.049561
      6          1           0        0.801672    2.326307    1.225698
      7          1           0        0.480993   -2.021561    0.831375
      8          6           0        0.104474   -0.966606   -1.625635
      9          7           0        0.849369   -1.453478   -2.366069
     10          1           0       -1.389902   -1.171041    2.522717
     11          1           0       -1.204808    1.473981    2.749824
     12          6           0       -0.702452    1.090042   -0.549138
     13          6           0        0.250979    1.769220   -1.396101
     14          7           0        1.055946    2.314116   -2.026564
     15          6           0        1.248497    0.124897    0.865865
     16          6           0        2.504226    0.082972    0.362726
     17          6           0       -2.039933   -1.136404   -0.469224
     18          8           0       -2.188728   -2.257740   -0.878509
     19          8           0       -2.944928   -0.461213    0.239901
     20          6           0       -4.176832   -1.150794    0.466046
     21          1           0       -4.816186   -0.440218    0.997179
     22          1           0       -4.626394   -1.444186   -0.490668
     23          6           0       -1.851370    1.907720   -0.237437
     24          7           0       -2.715907    2.631341    0.027548
     25          6           0        3.340976    1.318524    0.214598
     26          1           0        4.180096    1.295055    0.927240
     27          1           0        3.771431    1.346143   -0.798104
     28          1           0        2.775179    2.242689    0.368916
     29          6           0        3.155222   -1.204050   -0.065654
     30          1           0        2.464683   -2.047174    0.057243
     31          1           0        3.346497   -1.123099   -1.149122
     32          6           0        4.468853   -1.489345    0.669453
     33          1           0        5.230250   -0.727315    0.452473
     34          1           0        4.313040   -1.519695    1.758011
     35          6           0        5.034333   -2.851847    0.227389
     36          8           0        5.123664   -2.890648   -1.199291
     37          8           0        4.168724   -3.896513    0.679376
     38          6           0        4.943926   -5.056422    0.993337
     39          1           0        4.321262   -5.782456    1.472987
     40          1           0        5.346396   -5.470932    0.092726
     41          1           0        5.744168   -4.783783    1.649219
     42          6           0       -3.929910   -2.414382    1.311016
     43          1           0       -4.740354   -2.549023    1.996547
     44          1           0       -3.862056   -3.266327    0.667210
     45          1           0       -3.015757   -2.305744    1.856380
 ---------------------------------------------------------------------
                    Distance matrix (angstroms):
                    1          2          3          4          5
     1  C    0.000000
     2  C    2.284840   0.000000
     3  C    2.819349   2.095890   0.000000
     4  C    1.422107   2.279988   3.073983   0.000000
     5  C    2.273958   1.426327   2.712246   1.381464   0.000000
     6  H    1.089076   3.345057   3.631176   2.221332   3.312557
     7  H    3.344567   1.089414   2.560327   3.315337   2.221611
     8  C    3.694713   2.681616   1.445476   4.253002   3.774027
     9  N    4.577971   3.496357   2.602318   5.269558   4.748727
    10  H    3.324413   2.235802   3.337134   2.203483   1.088305
    11  H    2.231300   3.329418   3.886709   1.088078   2.205809
    12  C    2.173237   2.789609   1.448798   2.739750   3.068266
    13  C    2.721800   3.675113   2.470444   3.774781   4.242528
    14  N    3.507273   4.568819   3.513088   4.731717   5.257105
    15  C    1.467746   1.475255   2.572252   2.326848   2.325873
    16  C    2.544752   2.555739   3.457306   3.621649   3.622114
    17  C    3.898608   2.778676   1.501902   3.620325   2.942746
    18  O    4.926210   3.386484   2.384496   4.645252   3.731312
    19  O    3.968214   3.365142   2.352135   3.345174   2.931512
    20  C    5.303980   4.499260   3.672079   4.479493   3.922974
    21  H    5.560951   5.125076   4.369191   4.612826   4.307898
    22  H    6.040548   5.164944   4.009490   5.382309   4.812649
    23  C    2.830308   3.808456   2.539934   2.947265   3.562194
    24  N    3.665562   4.797857   3.626599   3.545618   4.295984
    25  C    3.069932   3.913456   4.523383   4.375676   4.761248
    26  H    3.736048   4.512744   5.452845   4.905034   5.278302
    27  H    3.907223   4.580419   4.852642   5.262630   5.579208
    28  H    2.661187   4.126552   4.512571   4.030564   4.715032
    29  C    3.911292   3.092008   4.060578   4.777625   4.395314
    30  H    4.081746   2.628385   3.721122   4.669765   3.984959
    31  H    4.477524   3.775939   4.218642   5.475371   5.144290
    32  C    4.917203   4.236851   5.522805   5.723149   5.376458
    33  H    5.245249   4.991455   6.114223   6.221399   6.086512
    34  H    4.794703   4.130185   5.746885   5.410111   5.057408
    35  C    6.261199   5.177053   6.381687   6.960515   6.392410
    36  O    6.736265   5.673581   6.441257   7.571607   7.021418
    37  O    6.406401   4.878377   6.223794   6.839520   6.022231
    38  C    7.778270   6.198373   7.582616   8.133760   7.259043
    39  H    8.063021   6.295402   7.741565   8.239572   7.240832
    40  H    8.427802   6.841463   8.010929   8.872778   7.998750
    41  H    8.061619   6.687822   8.208757   8.445272   7.676417
    42  C    5.746512   4.458141   4.252121   4.771570   3.857740
    43  H    6.506179   5.347031   5.252867   5.394147   4.566374
    44  H    6.312162   4.750589   4.447426   5.485957   4.441312
    45  H    5.037228   3.645933   3.891716   4.008864   2.966361
                    6          7          8          9         10
     6  H    0.000000
     7  H    4.377474   0.000000
     8  C    4.411288   2.700295   0.000000
     9  N    5.214388   3.268343   1.157651   0.000000
    10  H    4.326280   2.661629   4.414043   5.384639   0.000000
    11  H    2.659959   4.329109   5.178352   6.241956   2.661199
    12  C    2.634537   3.603947   2.457596   3.489825   3.875742
    13  C    2.736318   4.402792   2.749344   3.418288   5.166697
    14  N    3.262210   5.224603   3.439357   3.788496   6.230927
    15  C    2.274937   2.279810   2.950888   3.618835   3.374280
    16  C    2.945499   2.956715   3.288465   3.541970   4.626267
    17  C    4.789347   2.971553   2.442253   3.470825   3.061936
    18  O    5.863759   3.179134   2.735690   3.477025   3.658876
    19  O    4.772743   3.810704   3.610332   4.708753   2.851878
    20  C    6.119870   4.752582   4.768505   5.777126   3.463710
    21  H    6.266276   5.530664   5.600815   6.666082   3.821098
    22  H    6.828355   5.307218   4.888491   5.788022   4.430573
    23  C    3.058531   4.692710   3.743550   4.808609   4.160549
    24  N    3.728535   5.702263   4.861356   5.926748   4.737327
    25  C    2.913076   4.440280   4.368435   4.533425   5.822933
    26  H    3.544899   4.969154   5.314412   5.430843   6.296988
    27  H    3.725046   4.982330   4.413637   4.339912   6.633508
    28  H    2.153090   4.864256   4.627145   4.985031   5.800027
    29  C    4.435111   2.936748   3.434674   3.266662   5.230574
    30  H    4.822679   2.129545   3.093589   2.972231   4.658755
    31  H    4.900439   3.597321   3.280590   2.797456   5.993177
    32  C    5.321356   4.026475   4.958678   4.724018   6.153122
    33  H    5.434592   4.937011   5.536188   5.259621   6.950483
    34  H    5.234959   3.974306   5.428351   5.386041   5.764537
    35  C    6.762050   4.667663   5.593866   5.118142   7.025983
    36  O    7.195610   5.141334   5.392215   4.657943   7.696554
    37  O    7.096407   4.139795   5.515030   5.124575   6.459444
    38  C    8.468586   5.399480   6.856086   6.405639   7.586341
    39  H    8.843116   5.413285   7.111622   6.747773   7.415151
    40  H    9.095882   6.009651   7.121760   6.512209   8.352941
    41  H    8.669545   5.999979   7.556564   7.153497   8.044244
    42  C    6.698454   4.454260   5.195790   6.106210   3.076647
    43  H    7.421395   5.375714   6.252727   7.174792   3.660767
    44  H    7.303412   4.520893   5.126326   5.889375   3.734257
    45  H    6.035431   3.654949   4.863493   5.787455   2.091641
                   11         12         13         14         15
    11  H    0.000000
    12  C    3.359006   0.000000
    13  C    4.403995   1.444874   0.000000
    14  N    5.350768   2.602520   1.158606   0.000000
    15  C    3.374616   2.596140   2.969062   3.632616   0.000000
    16  C    4.624941   3.482595   3.318739   3.575503   1.353426
    17  C    4.227743   2.598519   3.814450   4.890385   3.766579
    18  O    5.297041   3.677655   4.736716   5.722570   4.531480
    19  O    3.615620   2.838604   4.226719   5.370876   4.280207
    20  C    4.575807   4.257142   5.621351   6.752827   5.587615
    21  H    4.447243   4.653558   6.023750   7.156208   6.092370
    22  H    5.542900   4.671515   5.910546   6.983752   6.230293
    23  C    3.087054   1.444219   2.404487   3.437822   3.742313
    24  N    3.321700   2.600417   3.401829   4.306609   4.764613
    25  C    5.207273   4.121263   3.513625   3.351921   2.495468
    26  H    5.687796   5.104997   4.589195   4.418570   3.157105
    27  H    6.112863   4.488118   3.595856   3.133679   3.259667
    28  H    4.701056   3.776948   3.116255   2.949439   2.657585
    29  C    5.840259   4.514229   4.364064   4.541984   2.503883
    30  H    5.754450   4.498952   4.645165   5.034644   2.617417
    31  H    6.531537   4.653167   4.243671   4.222674   3.165323
    32  C    6.730503   5.905980   5.716224   5.777781   3.607637
    33  H    7.178684   6.285138   5.868820   5.728939   4.092861
    34  H    6.355504   6.106458   6.104566   6.295219   3.590547
    35  C    8.000147   7.003726   6.846200   6.898916   4.858108
    36  O    8.642630   7.086058   6.745085   6.657348   5.326847
    37  O    7.874249   7.078371   7.194224   7.455428   4.973353
    38  C    9.139932   8.487629   8.621053   8.863466   6.365416
    39  H    9.209975   8.749738   9.045810   9.405510   6.686351
    40  H    9.910109   8.946895   8.977733   9.138179   6.978812
    41  H    9.415902   8.994081   9.076946   9.266659   6.702226
    42  C    4.961423   5.114455   6.504679   7.639169   5.784635
    43  H    5.408518   6.002329   7.420962   8.569284   6.655421
    44  H    5.819688   5.517296   6.821367   7.911038   6.136581
    45  H    4.285336   4.761225   6.152685   7.280050   5.007295
                   16         17         18         19         20
    16  C    0.000000
    17  C    4.777907   0.000000
    18  O    5.389194   1.202933   0.000000
    19  O    5.477637   1.333326   2.247262   0.000000
    20  C    6.794806   2.332654   2.643050   1.429773   0.000000
    21  H    7.366457   3.215990   3.704744   2.018791   1.093524
    22  H    7.342087   2.604798   2.598943   2.080215   1.097035
    23  C    4.760369   3.058753   4.227983   2.652464   3.906043
    24  N    5.818618   3.860003   5.000197   3.108285   4.078128
    25  C    1.499560   5.953861   6.675491   6.533046   7.916956
    26  H    2.143913   6.822819   7.512989   7.370406   8.719697
    27  H    2.132823   6.327966   6.965482   7.032316   8.426604
    28  H    2.176656   5.941890   6.815446   6.328298   7.736641
    29  C    1.504570   5.211246   5.507159   6.152804   7.351500
    30  H    2.152302   4.625823   4.751232   5.640260   6.714189
    31  H    2.109434   5.429187   5.656797   6.476844   7.694804
    32  C    2.534960   6.617057   6.878227   7.497047   8.654702
    33  H    2.845317   7.339785   7.691225   8.182269   9.416619
    34  H    2.790550   6.742978   7.054710   7.490203   8.595533
    35  C    3.877231   7.312541   7.331343   8.329700   9.369957
    36  O    4.259550   7.411309   7.346738   8.548427   9.607272
    37  O    4.325173   6.890929   6.747575   7.911919   8.788218
    38  C    5.723913   8.141248   7.887407   9.160657   9.935804
    39  H    6.239995   8.113124   7.767440   9.090305   9.730561
    40  H    6.244732   8.582644   8.248999   9.688395  10.463978
    41  H    5.986451   8.853440   8.700640   9.806690  10.631310
    42  C    6.966645   2.893872   2.801833   2.435641   1.540000
    43  H    7.879131   3.920177   3.855073   3.266238   2.148263
    44  H    7.200005   3.024598   2.491290   2.982010   2.148263
    45  H    6.197353   2.779932   2.857603   2.453633   2.148263
                   21         22         23         24         25
    21  H    0.000000
    22  H    1.804899   0.000000
    23  C    3.978344   4.358917   0.000000
    24  N    3.845235   4.530831   1.158132   0.000000
    25  C    8.381223   8.462207   5.245183   6.200347   0.000000
    26  H    9.162377   9.331033   6.173363   7.081664   1.101150
    27  H    8.953284   8.854599   5.678522   6.664757   1.100736
    28  H    8.075985   8.313556   4.678122   5.515397   1.094542
    29  C    8.078143   7.796913   5.897337   7.013492   2.544882
    30  H    7.515107   7.137729   5.861428   6.980537   3.481461
    31  H    8.467723   8.006475   6.085627   7.227248   2.796656
    32  C    9.349867   9.169048   7.232408   8.307399   3.059923
    33  H   10.065287   9.927580   7.587406   8.637276   2.794888
    34  H    9.224256   9.218229   7.330003   8.344561   3.373799
    35  C   10.170607   9.789114   8.383463   9.495868   4.501068
    36  O   10.470421   9.882208   8.520599   9.667284   4.784787
    37  O    9.632008   9.205271   8.412562   9.509779   5.300735
    38  C   10.796719  10.336419   9.807657  10.895297   6.619352
    39  H   10.595228  10.135930  10.008283  11.063589   7.277940
    40  H   11.375596  10.770867  10.313164  11.430302   7.080486
    41  H   11.437342  11.103179  10.296984  11.366035   6.713540
    42  C    2.186619   2.161582   5.039703   5.346066   8.246363
    43  H    2.334854   2.723947   5.761898   5.900128   9.134613
    44  H    3.001023   2.290217   5.624234   6.041963   8.550403
    45  H    2.731293   2.974066   4.846973   5.273457   7.499255
                   26         27         28         29         30
    26  H    0.000000
    27  H    1.773818   0.000000
    28  H    1.784244   1.777146   0.000000
    29  C    2.877800   2.723909   3.494752   0.000000
    30  H    3.856168   3.735480   4.312363   1.096725   0.000000
    31  H    3.294486   2.530008   3.736224   1.103196   1.756937
    32  C    2.811177   3.268044   4.109371   1.532123   2.168564
    33  H    2.327704   2.826893   3.854255   2.191226   3.089757
    34  H    2.937801   3.878156   4.295362   2.183101   2.566568
    35  C    4.291423   4.502186   5.574774   2.516380   2.698064
    36  O    4.788796   4.465410   5.858823   2.829224   3.059495
    37  O    5.197494   5.461340   6.303027   2.971803   2.590533
    38  C    6.397583   6.751063   7.640052   4.377408   4.009800
    39  H    7.099924   7.501806   8.246957   4.968789   4.404946
    40  H    6.916303   7.053127   8.135563   4.799230   4.475226
    41  H    6.318215   6.888909   7.734687   4.738979   4.558337
    42  C    8.926332   8.826131   8.217912   7.318416   6.526684
    43  H    9.772143   9.768975   9.060514   8.270535   7.478323
    44  H    9.249327   9.038372   8.630825   7.350665   6.471942
    45  H    8.099960   8.151594   7.512372   6.556594   5.773991
                   31         32         33         34         35
    31  H    0.000000
    32  C    2.168187   0.000000
    33  H    2.504052   1.098861   0.000000
    34  H    3.089161   1.100072   1.781452   0.000000
    35  C    2.780673   1.540000   2.145386   2.153531   0.000000
    36  O    2.507004   2.425826   2.723912   3.358907   1.430000
    37  O    3.422176   2.425826   3.349946   2.614105   1.430000
    38  C    4.755307   3.613120   4.372149   3.673035   2.335595
    39  H    5.434632   4.370154   5.236617   4.272287   3.263197
    40  H    4.944232   4.117734   4.758657   4.410587   2.641046
    41  H    5.194241   3.666018   4.260428   3.565702   2.501568
    42  C    7.788825   8.473873   9.353706   8.303403   9.040093
    43  H    8.793500   9.364486  10.252596   9.114843   9.938115
    44  H    7.736649   8.518317   9.442602   8.430467   8.916893
    45  H    7.135122   7.621987   8.512287   7.371487   8.231390
                   36         37         38         39         40
    36  O    0.000000
    37  O    2.335180   0.000000
    38  C    3.087151   1.430000   0.000000
    39  H    4.018392   2.051796   1.070000   0.000000
    40  H    2.894267   2.051796   1.070000   1.747303   0.000000
    41  H    3.476060   2.051796   1.070000   1.747303   1.747303
    42  C    9.407214   8.257333   9.264247   8.913584   9.842590
    43  H   10.374437   9.106170  10.053794   9.635460  10.672610
    44  H    9.185213   8.055477   8.992004   8.599237   9.486090
    45  H    8.713749   7.452023   8.465674   8.128121   9.113423
                   41         42         43         44         45
    41  H    0.000000
    42  C    9.965753   0.000000
    43  H   10.725670   1.070000   0.000000
    44  H    9.774792   1.070000   1.747303   0.000000
    45  H    9.106035   1.070000   1.747303   1.747303   0.000000
 Stoichiometry    C19H19N3O4
 Framework group  C1[X(C19H19N3O4)]
 Deg. of freedom   129
 Full point group                 C1      NOp   1
 Largest Abelian subgroup         C1      NOp   1
 Largest concise Abelian subgroup C1      NOp   1
                         Standard orientation:                         
 ---------------------------------------------------------------------
 Center     Atomic      Atomic             Coordinates (Angstroms)
 Number     Number       Type             X           Y           Z
 ---------------------------------------------------------------------
      1          6           0       -0.883469   -1.570443   -1.506520
      2          6           0       -0.222765    0.522735   -0.872035
      3          6           0       -1.420981    0.006169    0.768146
      4          6           0       -1.651989   -0.619381   -2.232636
      5          6           0       -1.242724    0.646747   -1.861334
      6          1           0       -0.942235   -2.646310   -1.665081
      7          1           0        0.347004    1.367730   -0.487106
      8          6           0       -0.377193    0.067823    1.766198
      9          7           0        0.497343    0.105202    2.523790
     10          1           0       -1.712917    1.582027   -2.158953
     11          1           0       -2.506468   -0.858786   -2.862291
     12          6           0       -1.883641   -1.318237    0.406334
     13          6           0       -1.239809   -2.441756    1.047307
     14          7           0       -0.686212   -3.348064    1.510452
     15          6           0        0.278469   -0.862188   -0.956472
     16          6           0        1.465243   -1.368689   -0.548077
     17          6           0       -2.317144    1.210306    0.819668
     18          8           0       -2.044777    2.210324    1.430266
     19          8           0       -3.409299    1.051967    0.071414
     20          6           0       -4.305787    2.165733    0.062217
     21          1           0       -5.162704    1.846103   -0.537219
     22          1           0       -4.612981    2.411567    1.086270
     23          6           0       -3.253072   -1.595718    0.041054
     24          7           0       -4.323199   -1.897736   -0.282802
     25          6           0        1.794295   -2.825506   -0.682581
     26          1           0        2.580897   -2.967508   -1.439961
     27          1           0        2.189626   -3.198231    0.274712
     28          1           0        0.929670   -3.438754   -0.955291
     29          6           0        2.542808   -0.506566    0.051363
     30          1           0        2.206855    0.534427    0.130572
     31          1           0        2.696310   -0.856139    1.086388
     32          6           0        3.866625   -0.574418   -0.716951
     33          1           0        4.298563   -1.584583   -0.694744
     34          1           0        3.727659   -0.282800   -1.768523
     35          6           0        4.892164    0.384642   -0.084436
     36          8           0        4.995996    0.115320    1.316129
     37          8           0        4.465224    1.735376   -0.279730
     38          6           0        5.608684    2.578907   -0.440531
     39          1           0        5.291588    3.556843   -0.737165
     40          1           0        6.138727    2.641822    0.486829
     41          1           0        6.251331    2.169229   -1.191576
     42          6           0       -3.618801    3.394338   -0.562428
     43          1           0       -4.327402    3.938072   -1.151612
     44          1           0       -3.241916    4.025821    0.214802
     45          1           0       -2.809765    3.072761   -1.184480
 ---------------------------------------------------------------------
 Rotational constants (GHZ):           0.3327914           0.1380775           0.1182274
 Standard basis: CC-pVDZ (5D, 7F)
 There are   485 symmetry adapted cartesian basis functions of A   symmetry.
 There are   459 symmetry adapted basis functions of A   symmetry.
   459 basis functions,   991 primitive gaussians,   485 cartesian basis functions
    93 alpha electrons       93 beta electrons
       nuclear repulsion energy      2342.1520361419 Hartrees.
 NAtoms=   45 NActive=   45 NUniq=   45 SFac= 1.00D+00 NAtFMM=   60 NAOKFM=F Big=F
 Integral buffers will be    131072 words long.
 Raffenetti 2 integral format.
 Two-electron integral symmetry is turned on.
 Nuclear repulsion after empirical dispersion term =     2342.1484652215 Hartrees.
 One-electron integrals computed using PRISM.
 NBasis=   459 RedAO= T EigKep=  3.92D-04  NBF=   459
 NBsUse=   459 1.00D-06 EigRej= -1.00D+00 NBFU=   459
 ExpMin= 1.22D-01 ExpMax= 1.17D+04 ExpMxC= 4.01D+02 IAcc=3 IRadAn=         5 AccDes= 0.00D+00
 Harris functional with IExCor= 1009 and IRadAn=       5 diagonalized for initial guess.
 HarFok:  IExCor= 1009 AccDes= 0.00D+00 IRadAn=         5 IDoV= 1 UseB2=F ITyADJ=14
 ICtDFT=  3500011 ScaDFX=  1.000000  1.000000  1.000000  1.000000
 FoFCou: FMM=F IPFlag=           0 FMFlag=      100000 FMFlg1=           0
         NFxFlg=           0 DoJE=T BraDBF=F KetDBF=T FulRan=T
         wScrn=  0.000000 ICntrl=       500 IOpCl=  0 I1Cent=   200000004 NGrid=           0
         NMat0=    1 NMatS0=      1 NMatT0=    0 NMatD0=    1 NMtDS0=    0 NMtDT0=    0
 Petite list used in FoFCou.
 Requested convergence on RMS density matrix=1.00D-08 within 128 cycles.
 Requested convergence on MAX density matrix=1.00D-06.
 Requested convergence on             energy=1.00D-06.
 No special actions if energy rises.
 Integral accuracy reduced to 1.0D-05 until final iterations.
 Initial convergence to 1.0D-05 achieved.  Increase integral accuracy.
 SCF Done:  E(RM062X) =  -1199.98963414     A.U. after   18 cycles
            NFock= 18  Conv=0.92D-08     -V/T= 2.0066
 DoSCS=F DFT=T ScalE2(SS,OS)=  1.000000  1.000000
 Range of M.O.s used for correlation:     1   459
 NBasis=   459 NAE=    93 NBE=    93 NFC=     0 NFV=     0
 NROrb=    459 NOA=    93 NOB=    93 NVA=   366 NVB=   366
 Symmetrizing basis deriv contribution to polar:
 IMax=3 JMax=2 DiffMx= 0.00D+00
 G2DrvN: will do    46 centers at a time, making    1 passes.
 Calling FoFCou, ICntrl=  3107 FMM=F I1Cent=   0 AccDes= 0.00D+00.
 End of G2Drv F.D. properties file   721 does not exist.
 End of G2Drv F.D. properties file   722 does not exist.
 End of G2Drv F.D. properties file   788 does not exist.
          IDoAtm=111111111111111111111111111111111111111111111
          Differentiating once with respect to nuclear coordinates.
 CalDSu exits because no D1Ps are significant.
          There are   138 degrees of freedom in the 1st order CPHF.  IDoFFX=6 NUNeed=     0.
    132 vectors produced by pass  0 Test12= 3.40D-14 1.00D-09 XBig12= 1.07D-01 1.09D-01.
 AX will form   132 AO Fock derivatives at one time.
    132 vectors produced by pass  1 Test12= 3.40D-14 1.00D-09 XBig12= 2.04D-02 3.05D-02.
    132 vectors produced by pass  2 Test12= 3.40D-14 1.00D-09 XBig12= 7.26D-04 3.91D-03.
    132 vectors produced by pass  3 Test12= 3.40D-14 1.00D-09 XBig12= 1.08D-05 4.08D-04.
    132 vectors produced by pass  4 Test12= 3.40D-14 1.00D-09 XBig12= 6.57D-08 1.92D-05.
    132 vectors produced by pass  5 Test12= 3.40D-14 1.00D-09 XBig12= 2.34D-10 1.17D-06.
     95 vectors produced by pass  6 Test12= 3.40D-14 1.00D-09 XBig12= 7.41D-13 8.11D-08.
     17 vectors produced by pass  7 Test12= 3.40D-14 1.00D-09 XBig12= 2.08D-15 3.34D-09.
 InvSVY:  IOpt=1 It=  1 EMax= 1.08D-15
 Solved reduced A of dimension   904 with   138 vectors.
 End of Minotr F.D. properties file   721 does not exist.
 End of Minotr F.D. properties file   722 does not exist.
 End of Minotr F.D. properties file   788 does not exist.

 **********************************************************************

            Population analysis using the SCF density.

 **********************************************************************

 Orbital symmetries:
       Occupied  (A) (A) (A) (A) (A) (A) (A) (A) (A) (A) (A) (A)
                 (A) (A) (A) (A) (A) (A) (A) (A) (A) (A) (A) (A)
                 (A) (A) (A) (A) (A) (A) (A) (A) (A) (A) (A) (A)
                 (A) (A) (A) (A) (A) (A) (A) (A) (A) (A) (A) (A)
                 (A) (A) (A) (A) (A) (A) (A) (A) (A) (A) (A) (A)
                 (A) (A) (A) (A) (A) (A) (A) (A) (A) (A) (A) (A)
                 (A) (A) (A) (A) (A) (A) (A) (A) (A) (A) (A) (A)
                 (A) (A) (A) (A) (A) (A) (A) (A) (A)
       Virtual   (A) (A) (A) (A) (A) (A) (A) (A) (A) (A) (A) (A)
                 (A) (A) (A) (A) (A) (A) (A) (A) (A) (A) (A) (A)
                 (A) (A) (A) (A) (A) (A) (A) (A) (A) (A) (A) (A)
                 (A) (A) (A) (A) (A) (A) (A) (A) (A) (A) (A) (A)
                 (A) (A) (A) (A) (A) (A) (A) (A) (A) (A) (A) (A)
                 (A) (A) (A) (A) (A) (A) (A) (A) (A) (A) (A) (A)
                 (A) (A) (A) (A) (A) (A) (A) (A) (A) (A) (A) (A)
                 (A) (A) (A) (A) (A) (A) (A) (A) (A) (A) (A) (A)
                 (A) (A) (A) (A) (A) (A) (A) (A) (A) (A) (A) (A)
                 (A) (A) (A) (A) (A) (A) (A) (A) (A) (A) (A) (A)
                 (A) (A) (A) (A) (A) (A) (A) (A) (A) (A) (A) (A)
                 (A) (A) (A) (A) (A) (A) (A) (A) (A) (A) (A) (A)
                 (A) (A) (A) (A) (A) (A) (A) (A) (A) (A) (A) (A)
                 (A) (A) (A) (A) (A) (A) (A) (A) (A) (A) (A) (A)
                 (A) (A) (A) (A) (A) (A) (A) (A) (A) (A) (A) (A)
                 (A) (A) (A) (A) (A) (A) (A) (A) (A) (A) (A) (A)
                 (A) (A) (A) (A) (A) (A) (A) (A) (A) (A) (A) (A)
                 (A) (A) (A) (A) (A) (A) (A) (A) (A) (A) (A) (A)
                 (A) (A) (A) (A) (A) (A) (A) (A) (A) (A) (A) (A)
                 (A) (A) (A) (A) (A) (A) (A) (A) (A) (A) (A) (A)
                 (A) (A) (A) (A) (A) (A) (A) (A) (A) (A) (A) (A)
                 (A) (A) (A) (A) (A) (A) (A) (A) (A) (A) (A) (A)
                 (A) (A) (A) (A) (A) (A) (A) (A) (A) (A) (A) (A)
                 (A) (A) (A) (A) (A) (A) (A) (A) (A) (A) (A) (A)
                 (A) (A) (A) (A) (A) (A) (A) (A) (A) (A) (A) (A)
                 (A) (A) (A) (A) (A) (A) (A) (A) (A) (A) (A) (A)
                 (A) (A) (A) (A) (A) (A) (A) (A) (A) (A) (A) (A)
                 (A) (A) (A) (A) (A) (A) (A) (A) (A) (A) (A) (A)
                 (A) (A) (A) (A) (A) (A) (A) (A) (A) (A) (A) (A)
                 (A) (A) (A) (A) (A) (A) (A) (A) (A) (A) (A) (A)
                 (A) (A) (A) (A) (A) (A)
 The electronic state is 1-A.
 Alpha  occ. eigenvalues --  -19.70359 -19.68143 -19.65879 -19.64826 -14.78035
 Alpha  occ. eigenvalues --  -14.77472 -14.77455 -10.71057 -10.71041 -10.66092
 Alpha  occ. eigenvalues --  -10.64727 -10.62157 -10.61725 -10.61704 -10.61232
 Alpha  occ. eigenvalues --  -10.60971 -10.60679 -10.60481 -10.60179 -10.59640
 Alpha  occ. eigenvalues --  -10.59516 -10.59392 -10.59031 -10.57800 -10.57110
 Alpha  occ. eigenvalues --  -10.54992  -1.26319  -1.19734  -1.16601  -1.07328
 Alpha  occ. eigenvalues --   -1.04976  -1.02435  -1.02078  -1.01780  -0.95568
 Alpha  occ. eigenvalues --   -0.94583  -0.88820  -0.88367  -0.85929  -0.82767
 Alpha  occ. eigenvalues --   -0.81770  -0.80937  -0.77452  -0.76998  -0.71437
 Alpha  occ. eigenvalues --   -0.69296  -0.66259  -0.65937  -0.65467  -0.65019
 Alpha  occ. eigenvalues --   -0.62538  -0.60716  -0.59971  -0.59038  -0.57269
 Alpha  occ. eigenvalues --   -0.56546  -0.56150  -0.55623  -0.54285  -0.53750
 Alpha  occ. eigenvalues --   -0.52911  -0.52235  -0.51010  -0.49782  -0.49486
 Alpha  occ. eigenvalues --   -0.49068  -0.48538  -0.47887  -0.46925  -0.46606
 Alpha  occ. eigenvalues --   -0.46413  -0.45784  -0.45340  -0.45147  -0.44685
 Alpha  occ. eigenvalues --   -0.44444  -0.44172  -0.43233  -0.42852  -0.42759
 Alpha  occ. eigenvalues --   -0.41969  -0.41723  -0.41339  -0.41085  -0.39704
 Alpha  occ. eigenvalues --   -0.39008  -0.38414  -0.37446  -0.35400  -0.34803
 Alpha  occ. eigenvalues --   -0.33348  -0.32939  -0.31442
 Alpha virt. eigenvalues --   -0.08726  -0.06209  -0.05500   0.03748   0.04210
 Alpha virt. eigenvalues --    0.05873   0.06619   0.07333   0.08315   0.09315
 Alpha virt. eigenvalues --    0.10142   0.10608   0.10887   0.11473   0.11705
 Alpha virt. eigenvalues --    0.11981   0.12558   0.13105   0.13495   0.13885
 Alpha virt. eigenvalues --    0.14884   0.15710   0.16009   0.16416   0.16577
 Alpha virt. eigenvalues --    0.16776   0.17319   0.17753   0.18173   0.18498
 Alpha virt. eigenvalues --    0.19672   0.20485   0.20805   0.21583   0.22267
 Alpha virt. eigenvalues --    0.23733   0.24339   0.24935   0.25284   0.26017
 Alpha virt. eigenvalues --    0.27051   0.28823   0.29515   0.29984   0.30672
 Alpha virt. eigenvalues --    0.32364   0.33028   0.35738   0.36733   0.37544
 Alpha virt. eigenvalues --    0.37880   0.38062   0.38423   0.42044   0.42558
 Alpha virt. eigenvalues --    0.43946   0.44950   0.45439   0.45890   0.46376
 Alpha virt. eigenvalues --    0.47036   0.47830   0.47973   0.48320   0.48850
 Alpha virt. eigenvalues --    0.49588   0.49852   0.50157   0.50447   0.51294
 Alpha virt. eigenvalues --    0.51443   0.52508   0.52808   0.53232   0.54157
 Alpha virt. eigenvalues --    0.55119   0.55668   0.56023   0.56996   0.58164
 Alpha virt. eigenvalues --    0.58673   0.59499   0.59957   0.60722   0.61657
 Alpha virt. eigenvalues --    0.62449   0.64160   0.64321   0.64792   0.65468
 Alpha virt. eigenvalues --    0.66035   0.66739   0.67178   0.67388   0.67819
 Alpha virt. eigenvalues --    0.67918   0.68383   0.68534   0.68961   0.69074
 Alpha virt. eigenvalues --    0.69277   0.69989   0.70193   0.70869   0.71319
 Alpha virt. eigenvalues --    0.71536   0.71828   0.72594   0.73186   0.73449
 Alpha virt. eigenvalues --    0.74373   0.74473   0.75474   0.75520   0.76553
 Alpha virt. eigenvalues --    0.76939   0.77328   0.78105   0.78599   0.79747
 Alpha virt. eigenvalues --    0.80303   0.80801   0.82287   0.82846   0.84686
 Alpha virt. eigenvalues --    0.85013   0.85235   0.86184   0.86861   0.87404
 Alpha virt. eigenvalues --    0.89246   0.90221   0.90803   0.91183   0.91995
 Alpha virt. eigenvalues --    0.92847   0.93197   0.94213   0.94501   0.95336
 Alpha virt. eigenvalues --    0.95591   0.95899   0.96351   0.98563   0.98819
 Alpha virt. eigenvalues --    1.00784   1.02080   1.03122   1.03627   1.04681
 Alpha virt. eigenvalues --    1.05179   1.05412   1.06012   1.06728   1.08229
 Alpha virt. eigenvalues --    1.09522   1.10697   1.11488   1.11805   1.12427
 Alpha virt. eigenvalues --    1.13940   1.15548   1.16348   1.17176   1.18919
 Alpha virt. eigenvalues --    1.19060   1.19700   1.20648   1.21145   1.21789
 Alpha virt. eigenvalues --    1.22229   1.23389   1.24418   1.24878   1.26516
 Alpha virt. eigenvalues --    1.27109   1.27777   1.27909   1.28971   1.30423
 Alpha virt. eigenvalues --    1.31307   1.32397   1.33565   1.34379   1.35286
 Alpha virt. eigenvalues --    1.36299   1.36885   1.38427   1.39442   1.40514
 Alpha virt. eigenvalues --    1.41072   1.41831   1.43236   1.44015   1.45245
 Alpha virt. eigenvalues --    1.46060   1.46230   1.46491   1.47471   1.48227
 Alpha virt. eigenvalues --    1.49226   1.49929   1.50181   1.52062   1.53715
 Alpha virt. eigenvalues --    1.55553   1.56069   1.56120   1.58891   1.59125
 Alpha virt. eigenvalues --    1.59618   1.59964   1.60663   1.62155   1.62672
 Alpha virt. eigenvalues --    1.63090   1.63646   1.63899   1.64633   1.65413
 Alpha virt. eigenvalues --    1.66287   1.66931   1.67315   1.67749   1.67828
 Alpha virt. eigenvalues --    1.68601   1.69677   1.70032   1.70407   1.70800
 Alpha virt. eigenvalues --    1.71517   1.71815   1.72168   1.72779   1.73199
 Alpha virt. eigenvalues --    1.73616   1.73957   1.75043   1.75395   1.75774
 Alpha virt. eigenvalues --    1.76544   1.76614   1.77724   1.78454   1.78760
 Alpha virt. eigenvalues --    1.79613   1.79793   1.79931   1.81274   1.82453
 Alpha virt. eigenvalues --    1.83432   1.84025   1.85274   1.85549   1.86500
 Alpha virt. eigenvalues --    1.87101   1.87423   1.87905   1.89062   1.90663
 Alpha virt. eigenvalues --    1.91452   1.91517   1.93268   1.94204   1.95203
 Alpha virt. eigenvalues --    1.95298   1.95631   1.96319   1.96524   1.96792
 Alpha virt. eigenvalues --    1.98257   1.98477   1.99658   2.00597   2.01001
 Alpha virt. eigenvalues --    2.01777   2.02613   2.03543   2.03624   2.04206
 Alpha virt. eigenvalues --    2.05997   2.07069   2.07816   2.08389   2.09001
 Alpha virt. eigenvalues --    2.10077   2.11400   2.11849   2.12303   2.13686
 Alpha virt. eigenvalues --    2.14641   2.15888   2.16283   2.18813   2.19306
 Alpha virt. eigenvalues --    2.20325   2.22571   2.23632   2.24606   2.25264
 Alpha virt. eigenvalues --    2.26142   2.29269   2.30290   2.32997   2.34612
 Alpha virt. eigenvalues --    2.36577   2.37533   2.39359   2.41025   2.41822
 Alpha virt. eigenvalues --    2.43443   2.44617   2.45445   2.46549   2.47757
 Alpha virt. eigenvalues --    2.49013   2.49562   2.49685   2.50081   2.51618
 Alpha virt. eigenvalues --    2.52199   2.52339   2.55030   2.56076   2.57841
 Alpha virt. eigenvalues --    2.58684   2.59215   2.59490   2.59936   2.60639
 Alpha virt. eigenvalues --    2.62490   2.66311   2.69011   2.69906   2.72963
 Alpha virt. eigenvalues --    2.75242   2.76286   2.76689   2.77318   2.78634
 Alpha virt. eigenvalues --    2.79989   2.80952   2.85355   2.86676   2.88945
 Alpha virt. eigenvalues --    2.90665   2.93180   2.95251   2.95493   2.96608
 Alpha virt. eigenvalues --    2.98047   3.00586   3.01737   3.04750   3.07344
 Alpha virt. eigenvalues --    3.07602   3.19157   3.20712   3.22206   3.28239
 Alpha virt. eigenvalues --    3.28547   3.33322   3.37082   3.43534   3.53734
 Alpha virt. eigenvalues --    3.60894
          Condensed to atoms (all electrons):
               1          2          3          4          5          6
     1  C    4.981112  -0.103266  -0.065987   0.485766  -0.043165   0.397326
     2  C   -0.103266   5.014521   0.176405  -0.034932   0.464993   0.009222
     3  C   -0.065987   0.176405   5.514383  -0.041165  -0.015359   0.004332
     4  C    0.485766  -0.034932  -0.041165   4.697299   0.548213  -0.030650
     5  C   -0.043165   0.464993  -0.015359   0.548213   4.735957   0.006824
     6  H    0.397326   0.009222   0.004332  -0.030650   0.006824   0.623924
     7  H    0.009066   0.394327  -0.015540   0.006528  -0.032393  -0.000109
     8  C    0.001083  -0.036401   0.298080   0.001622   0.002852   0.000012
     9  N    0.000152  -0.003348  -0.041994  -0.000005   0.000038   0.000004
    10  H    0.009343  -0.045707  -0.001910  -0.044484   0.407380  -0.000144
    11  H   -0.041209   0.009684  -0.000391   0.412954  -0.044734  -0.005331
    12  C    0.175056  -0.074955   0.383788  -0.013438  -0.036969  -0.011069
    13  C   -0.030200   0.001771  -0.037003   0.002704   0.001443  -0.001234
    14  N   -0.003392   0.000152  -0.002287   0.000086  -0.000011   0.000372
    15  C    0.388832   0.398651  -0.050842  -0.056798  -0.067157  -0.022835
    16  C   -0.071734  -0.082329  -0.004385   0.006411   0.009932  -0.012788
    17  C    0.000173  -0.017334   0.280208  -0.001332  -0.010939   0.000013
    18  O   -0.000016  -0.000288  -0.086842   0.000090  -0.001457   0.000000
    19  O   -0.000881  -0.006618  -0.083427  -0.000055   0.005713  -0.000020
    20  C    0.000024  -0.000002   0.011387   0.000058  -0.000289   0.000000
    21  H   -0.000002   0.000007  -0.000510   0.000026  -0.000012  -0.000000
    22  H   -0.000003  -0.000091   0.001634  -0.000004   0.000077  -0.000000
    23  C   -0.036417   0.000758  -0.035539  -0.012218  -0.002373  -0.002748
    24  N   -0.002653  -0.000021   0.000652  -0.001498   0.000236   0.000474
    25  C   -0.010683   0.008744   0.000580   0.000666  -0.000214   0.001508
    26  H   -0.000147  -0.000355  -0.000042   0.000036   0.000050  -0.000053
    27  H    0.000315  -0.000246   0.000053  -0.000049   0.000008   0.000156
    28  H    0.007710   0.000199   0.000044   0.000854  -0.000145   0.000690
    29  C    0.008037  -0.011987  -0.000970  -0.000192   0.000724  -0.000141
    30  H    0.000496   0.007186  -0.000366  -0.000157   0.000928   0.000005
    31  H   -0.000283   0.000622   0.000786   0.000014  -0.000069  -0.000005
    32  C   -0.000286   0.000001  -0.000051   0.000022   0.000018  -0.000007
    33  H    0.000008   0.000002  -0.000002  -0.000002   0.000006   0.000000
    34  H   -0.000105   0.000421   0.000008   0.000004  -0.000063   0.000002
    35  C    0.000006   0.000019  -0.000001  -0.000000   0.000002   0.000000
    36  O    0.000000   0.000003  -0.000000  -0.000000   0.000000   0.000000
    37  O   -0.000000  -0.000075   0.000000   0.000000  -0.000001  -0.000000
    38  C    0.000000   0.000001  -0.000000  -0.000000   0.000000   0.000000
    39  H    0.000000   0.000000  -0.000000  -0.000000   0.000000   0.000000
    40  H   -0.000000  -0.000000   0.000000   0.000000  -0.000000  -0.000000
    41  H   -0.000000  -0.000000   0.000000   0.000000  -0.000000  -0.000000
    42  C   -0.000006   0.000090  -0.000516   0.000049  -0.002354  -0.000000
    43  H    0.000001  -0.000009   0.000072  -0.000003   0.000016  -0.000000
    44  H    0.000001  -0.000037   0.000219   0.000004   0.000117  -0.000000
    45  H   -0.000050  -0.000048  -0.000964   0.000337  -0.000587  -0.000000
               7          8          9         10         11         12
     1  C    0.009066   0.001083   0.000152   0.009343  -0.041209   0.175056
     2  C    0.394327  -0.036401  -0.003348  -0.045707   0.009684  -0.074955
     3  C   -0.015540   0.298080  -0.041994  -0.001910  -0.000391   0.383788
     4  C    0.006528   0.001622  -0.000005  -0.044484   0.412954  -0.013438
     5  C   -0.032393   0.002852   0.000038   0.407380  -0.044734  -0.036969
     6  H   -0.000109   0.000012   0.000004  -0.000144  -0.005331  -0.011069
     7  H    0.616693  -0.002336   0.000129  -0.005508  -0.000116   0.005196
     8  C   -0.002336   4.781119   1.060027  -0.000404   0.000029  -0.046792
     9  N    0.000129   1.060027   6.066863   0.000001  -0.000000  -0.002357
    10  H   -0.005508  -0.000404   0.000001   0.652426  -0.007745   0.000439
    11  H   -0.000116   0.000029  -0.000000  -0.007745   0.636790  -0.002656
    12  C    0.005196  -0.046792  -0.002357   0.000439  -0.002656   5.337197
    13  C    0.000048  -0.023513  -0.001647   0.000009  -0.000213   0.317608
    14  N    0.000004  -0.002030  -0.000758  -0.000000   0.000002  -0.051539
    15  C   -0.014182  -0.015815  -0.001378   0.004855   0.005614  -0.045137
    16  C   -0.014115   0.000748  -0.000712  -0.000226  -0.000323  -0.004113
    17  C   -0.002411  -0.055261  -0.002716   0.003514  -0.000109  -0.024067
    18  O    0.003219   0.007849  -0.002044  -0.000457   0.000001   0.004038
    19  O   -0.000092   0.001148  -0.000018   0.000043   0.000319   0.011976
    20  C   -0.000069  -0.000204   0.000000  -0.000084  -0.000015  -0.000771
    21  H   -0.000001   0.000011  -0.000000  -0.000055   0.000016  -0.000007
    22  H   -0.000013   0.000062   0.000000   0.000064   0.000002  -0.000029
    23  C   -0.000040   0.001477  -0.000081  -0.000297   0.005799   0.275038
    24  N   -0.000001  -0.000056   0.000000   0.000012   0.000667  -0.057072
    25  C   -0.000161  -0.000501  -0.000029   0.000009   0.000002  -0.000238
    26  H   -0.000006   0.000006  -0.000003  -0.000000  -0.000000  -0.000074
    27  H   -0.000013   0.000036   0.000033  -0.000000  -0.000001   0.000396
    28  H    0.000006  -0.000019   0.000002  -0.000001   0.000025  -0.000385
    29  C    0.002270   0.000602  -0.001592   0.000001   0.000007   0.000406
    30  H   -0.001245   0.000833   0.001382   0.000041  -0.000000   0.000072
    31  H    0.000326   0.001020   0.005187  -0.000001  -0.000000   0.000050
    32  C    0.000041   0.000336   0.000245  -0.000001  -0.000000  -0.000021
    33  H   -0.000029  -0.000005  -0.000004   0.000000  -0.000000   0.000000
    34  H    0.000161  -0.000006  -0.000003  -0.000001  -0.000000   0.000004
    35  C    0.000079   0.000002  -0.000005  -0.000000   0.000000   0.000000
    36  O    0.000006  -0.000002  -0.000006   0.000000   0.000000   0.000000
    37  O   -0.000101  -0.000002  -0.000000  -0.000000   0.000000  -0.000000
    38  C    0.000000   0.000000  -0.000000   0.000000  -0.000000   0.000000
    39  H    0.000001   0.000000   0.000000   0.000000  -0.000000   0.000000
    40  H    0.000000  -0.000000   0.000000  -0.000000   0.000000  -0.000000
    41  H   -0.000001  -0.000000  -0.000000  -0.000000   0.000000   0.000000
    42  C    0.000085  -0.000009  -0.000000  -0.000766  -0.000006   0.000040
    43  H   -0.000003  -0.000000   0.000000   0.000067  -0.000001  -0.000003
    44  H    0.000003   0.000020  -0.000000  -0.000208  -0.000000  -0.000033
    45  H    0.000172   0.000013  -0.000000   0.003270   0.000075   0.000131
              13         14         15         16         17         18
     1  C   -0.030200  -0.003392   0.388832  -0.071734   0.000173  -0.000016
     2  C    0.001771   0.000152   0.398651  -0.082329  -0.017334  -0.000288
     3  C   -0.037003  -0.002287  -0.050842  -0.004385   0.280208  -0.086842
     4  C    0.002704   0.000086  -0.056798   0.006411  -0.001332   0.000090
     5  C    0.001443  -0.000011  -0.067157   0.009932  -0.010939  -0.001457
     6  H   -0.001234   0.000372  -0.022835  -0.012788   0.000013   0.000000
     7  H    0.000048   0.000004  -0.014182  -0.014115  -0.002411   0.003219
     8  C   -0.023513  -0.002030  -0.015815   0.000748  -0.055261   0.007849
     9  N   -0.001647  -0.000758  -0.001378  -0.000712  -0.002716  -0.002044
    10  H    0.000009  -0.000000   0.004855  -0.000226   0.003514  -0.000457
    11  H   -0.000213   0.000002   0.005614  -0.000323  -0.000109   0.000001
    12  C    0.317608  -0.051539  -0.045137  -0.004113  -0.024067   0.004038
    13  C    4.745790   1.081837  -0.015740   0.000082   0.002005  -0.000005
    14  N    1.081837   6.059671  -0.001329  -0.000844  -0.000066   0.000000
    15  C   -0.015740  -0.001329   5.020648   0.503307   0.003265   0.000135
    16  C    0.000082  -0.000844   0.503307   5.124056   0.000162   0.000000
    17  C    0.002005  -0.000066   0.003265   0.000162   4.400698   0.769297
    18  O   -0.000005   0.000000   0.000135   0.000000   0.769297   7.597629
    19  O    0.000427  -0.000000   0.000326   0.000003   0.399498  -0.063789
    20  C   -0.000003  -0.000000  -0.000009  -0.000000  -0.064581  -0.003480
    21  H   -0.000001   0.000000  -0.000002  -0.000000   0.003954   0.000404
    22  H    0.000003  -0.000000   0.000003   0.000000  -0.001020   0.006579
    23  C   -0.066119  -0.001017   0.004194   0.000367  -0.013998  -0.000216
    24  N   -0.002373  -0.000022   0.000046   0.000003  -0.000315  -0.000002
    25  C   -0.000007  -0.001098  -0.058927   0.446743   0.000010  -0.000000
    26  H    0.000228   0.000183  -0.000215  -0.008301  -0.000000  -0.000000
    27  H    0.000435   0.001989   0.003983  -0.012283  -0.000001   0.000000
    28  H    0.001780   0.002385  -0.024372   0.001679   0.000001   0.000000
    29  C   -0.000618  -0.000097  -0.051496   0.434017  -0.000025   0.000002
    30  H   -0.000047  -0.000002  -0.022578  -0.006808  -0.000117  -0.000044
    31  H    0.000142   0.000098   0.003765   0.006405   0.000005   0.000000
    32  C    0.000013   0.000001   0.000574  -0.057414   0.000001  -0.000000
    33  H   -0.000002  -0.000001  -0.000526  -0.014277  -0.000000   0.000000
    34  H    0.000000  -0.000000   0.003334   0.002843   0.000000  -0.000000
    35  C    0.000000   0.000000  -0.000507   0.003906   0.000000   0.000000
    36  O   -0.000000   0.000000  -0.000032   0.000563   0.000000  -0.000000
    37  O   -0.000000  -0.000000   0.000047  -0.000295  -0.000000   0.000000
    38  C    0.000000   0.000000  -0.000001   0.000008   0.000000   0.000000
    39  H    0.000000   0.000000   0.000000  -0.000002   0.000000   0.000000
    40  H    0.000000   0.000000   0.000000  -0.000001  -0.000000   0.000000
    41  H   -0.000000   0.000000   0.000000   0.000005  -0.000000  -0.000000
    42  C    0.000001  -0.000000   0.000006   0.000000  -0.003707  -0.004018
    43  H   -0.000000  -0.000000   0.000000  -0.000000   0.000257   0.000708
    44  H   -0.000000  -0.000000  -0.000002  -0.000000  -0.000333   0.007975
    45  H    0.000002   0.000000   0.000026   0.000000   0.006018  -0.001838
              19         20         21         22         23         24
     1  C   -0.000881   0.000024  -0.000002  -0.000003  -0.036417  -0.002653
     2  C   -0.006618  -0.000002   0.000007  -0.000091   0.000758  -0.000021
     3  C   -0.083427   0.011387  -0.000510   0.001634  -0.035539   0.000652
     4  C   -0.000055   0.000058   0.000026  -0.000004  -0.012218  -0.001498
     5  C    0.005713  -0.000289  -0.000012   0.000077  -0.002373   0.000236
     6  H   -0.000020   0.000000  -0.000000  -0.000000  -0.002748   0.000474
     7  H   -0.000092  -0.000069  -0.000001  -0.000013  -0.000040  -0.000001
     8  C    0.001148  -0.000204   0.000011   0.000062   0.001477  -0.000056
     9  N   -0.000018   0.000000  -0.000000   0.000000  -0.000081   0.000000
    10  H    0.000043  -0.000084  -0.000055   0.000064  -0.000297   0.000012
    11  H    0.000319  -0.000015   0.000016   0.000002   0.005799   0.000667
    12  C    0.011976  -0.000771  -0.000007  -0.000029   0.275038  -0.057072
    13  C    0.000427  -0.000003  -0.000001   0.000003  -0.066119  -0.002373
    14  N   -0.000000  -0.000000   0.000000  -0.000000  -0.001017  -0.000022
    15  C    0.000326  -0.000009  -0.000002   0.000003   0.004194   0.000046
    16  C    0.000003  -0.000000  -0.000000   0.000000   0.000367   0.000003
    17  C    0.399498  -0.064581   0.003954  -0.001020  -0.013998  -0.000315
    18  O   -0.063789  -0.003480   0.000404   0.006579  -0.000216  -0.000002
    19  O    7.824265   0.300866  -0.018648  -0.028182  -0.004577  -0.006318
    20  C    0.300866   4.493961   0.399902   0.394180   0.000458   0.000355
    21  H   -0.018648   0.399902   0.622466  -0.031790   0.000073   0.000670
    22  H   -0.028182   0.394180  -0.031790   0.635338   0.000022  -0.000021
    23  C   -0.004577   0.000458   0.000073   0.000022   4.771320   1.097839
    24  N   -0.006318   0.000355   0.000670  -0.000021   1.097839   6.053425
    25  C    0.000000   0.000000   0.000000   0.000000  -0.000047  -0.000000
    26  H    0.000000  -0.000000  -0.000000   0.000000   0.000002   0.000000
    27  H   -0.000000   0.000000   0.000000  -0.000000   0.000001  -0.000000
    28  H    0.000000   0.000000   0.000000   0.000000  -0.000039  -0.000001
    29  C   -0.000000  -0.000000  -0.000000  -0.000000   0.000009  -0.000000
    30  H    0.000000   0.000000   0.000000   0.000000   0.000000   0.000000
    31  H   -0.000000   0.000000   0.000000  -0.000000  -0.000002  -0.000000
    32  C    0.000000   0.000000  -0.000000   0.000000   0.000000   0.000000
    33  H    0.000000  -0.000000  -0.000000   0.000000   0.000000   0.000000
    34  H   -0.000000   0.000000   0.000000  -0.000000  -0.000000  -0.000000
    35  C   -0.000000  -0.000000  -0.000000  -0.000000   0.000000   0.000000
    36  O   -0.000000   0.000000   0.000000  -0.000000   0.000000  -0.000000
    37  O    0.000000  -0.000000  -0.000000  -0.000000  -0.000000   0.000000
    38  C    0.000000  -0.000000   0.000000  -0.000000   0.000000  -0.000000
    39  H    0.000000  -0.000000  -0.000000   0.000000   0.000000  -0.000000
    40  H    0.000000  -0.000000  -0.000000  -0.000000  -0.000000   0.000000
    41  H   -0.000000   0.000000   0.000000  -0.000000  -0.000000  -0.000000
    42  C   -0.046450   0.438058  -0.030202  -0.036510   0.000055  -0.000012
    43  H    0.002636  -0.018218  -0.009621   0.003390  -0.000001   0.000000
    44  H    0.001011  -0.017311   0.006319  -0.013257  -0.000004   0.000000
    45  H   -0.005715  -0.030246  -0.001190   0.006722   0.000006  -0.000003
              25         26         27         28         29         30
     1  C   -0.010683  -0.000147   0.000315   0.007710   0.008037   0.000496
     2  C    0.008744  -0.000355  -0.000246   0.000199  -0.011987   0.007186
     3  C    0.000580  -0.000042   0.000053   0.000044  -0.000970  -0.000366
     4  C    0.000666   0.000036  -0.000049   0.000854  -0.000192  -0.000157
     5  C   -0.000214   0.000050   0.000008  -0.000145   0.000724   0.000928
     6  H    0.001508  -0.000053   0.000156   0.000690  -0.000141   0.000005
     7  H   -0.000161  -0.000006  -0.000013   0.000006   0.002270  -0.001245
     8  C   -0.000501   0.000006   0.000036  -0.000019   0.000602   0.000833
     9  N   -0.000029  -0.000003   0.000033   0.000002  -0.001592   0.001382
    10  H    0.000009  -0.000000  -0.000000  -0.000001   0.000001   0.000041
[...]
 .00084829,-0.01505866,-0.02339855,0.04021585,-0.07786089,0.01869076,-0
 .02619832,0.00112372,0.00895904,-0.01849801,0.00079985,0.00618606,-0.0
 0687312,0.00013778,0.00035400,-0.00009760,0.00004242,-0.00018719,0.000
 01933,-0.00004399,0.00001458,0.00004940,-0.00001581,-0.00001316,-0.000
 00933,-0.00000402,-0.00001994,-0.00000306,0.00000731,0.00000252,-0.000
 00023,-0.00001254,0.00000073,-0.00001707,0.00000364,-0.00001219,0.0000
 0909,0.00000134,0.00000871,0.00000370,-0.00000890,0.00003934,0.0000363
 1,-0.00000185,-0.00000496,0.00000136,0.00000347,-0.00000477,0.00000279
 ,0.00004883,-0.00013750,-0.00001227,-0.00001838,0.00009345,-0.00002374
 ,-0.00004674,0.00006311,0.00002068,0.00002344,-0.00004009,-0.00001059,
 -0.00000125,0.00000171,0.00000304,-0.00000356,0.00000521,-0.00000182,-
 0.00000098,0.00000438,0.00000079,0.58693273,0.00004374,-0.00010046,-0.
 00006182,0.00016481,0.00024424,0.00005299,-0.00069823,-0.00005669,-0.0
 0035436,-0.00017001,-0.00007556,0.00004562,0.00016876,-0.00025233,-0.0
 0002702,-0.00000301,-0.00000214,-0.00001271,0.00010894,-0.00000210,-0.
 00002386,-0.00003938,-0.00000113,-0.00005887,-0.00001162,0.00000842,0.
 00004373,-0.00046383,0.00038449,0.00019776,-0.00002997,-0.00005672,0.0
 0002775,0.00006473,0.00018338,0.00016335,0.00001428,-0.00000317,-0.000
 01228,-0.00002269,-0.00001134,0.00001547,0.00002110,-0.00006874,-0.000
 08235,0.00003959,0.00000637,-0.00002676,0.00147799,0.00036151,-0.00145
 934,-0.00011074,-0.00023532,0.00222199,-0.00976679,-0.00965128,0.01602
 075,0.01279382,-0.11835008,0.05991107,0.00118242,-0.01148204,0.0237360
 4,-0.00044548,0.01158027,-0.01604983,0.00007198,0.00011433,-0.00003849
 ,-0.00002953,-0.00009984,-0.00000836,-0.00000822,-0.00000146,0.0000138
 3,-0.00000479,0.00000110,-0.00000297,0.00000164,-0.00000387,-0.0000025
 0,0.00000496,0.00000067,0.00000197,0.00000554,0.00001398,0.00000398,0.
 00000315,-0.00000758,-0.00000196,-0.00000116,-0.00000099,-0.00000009,-
 0.00000241,0.00000477,0.00000896,-0.00000486,-0.00000231,0.00000072,0.
 00000357,0.00000359,0.00000517,0.00002624,-0.00003137,-0.00001075,-0.0
 0001738,0.00001880,-0.00000715,-0.00002237,0.00001966,0.00001113,0.000
 01435,-0.00001343,-0.00000412,-0.00000051,0.00000012,0.00000163,-0.000
 00215,0.00000161,-0.00000162,0.00000008,0.00000034,0.00000024,0.001233
 06,0.55981386,-0.00010134,-0.00000332,0.00007901,-0.00002290,0.0002605
 4,0.00009986,0.00014638,0.00002872,0.00012306,0.00009315,0.00002246,-0
 .00003570,0.00018145,-0.00047304,0.00020560,0.00001342,0.00000277,-0.0
 0002113,0.00003745,-0.00000138,-0.00001789,-0.00005957,-0.00000508,0.0
 0005281,0.00000445,-0.00001736,-0.00001409,-0.00056858,0.00040421,-0.0
 0009684,-0.00005975,-0.00008505,0.00002444,0.00000675,0.00001932,-0.00
 006077,-0.00006171,-0.00002615,0.00000076,0.00001931,0.00001729,-0.000
 01882,0.00018421,-0.00003961,-0.00021919,-0.00012133,0.00003929,0.0000
 4750,0.00040439,-0.00057527,-0.00140574,-0.00001442,0.00104661,-0.0006
 6841,0.00699750,0.00839524,-0.00595283,-0.01552391,0.06198250,-0.18861
 831,-0.00068953,-0.00262510,0.00293847,-0.00171278,0.01562686,-0.02068
 613,0.00008377,0.00001067,-0.00000547,-0.00004569,-0.00000722,-0.00001
 936,0.00002632,-0.00000855,-0.00000939,0.00000939,0.00001185,0.0000023
 5,-0.00000024,0.00000796,-0.00000293,-0.00000203,-0.00000386,0.0000015
 3,0.00001423,0.00000749,0.00001117,-0.00000231,0.00000209,-0.00000242,
 0.00000161,-0.00000511,-0.00000217,0.00000571,-0.00002806,-0.00002422,
 -0.00000146,0.00000250,-0.00000045,-0.00000096,0.00000589,-0.00000047,
 -0.00002150,0.00008620,-0.00000390,0.00000534,-0.00006075,0.00001886,0
 .00002089,-0.00003619,-0.00000506,-0.00000998,0.00002132,0.00000469,0.
 00000053,-0.00000118,-0.00000116,0.00000194,-0.00000235,0.00000056,0.0
 0000034,-0.00000250,-0.00000097,-0.00398140,0.04102298,0.52360097,0.00
 007305,-0.00007188,-0.00003096,0.00002830,-0.00005649,0.00002261,-0.00
 000359,-0.00006932,-0.00016084,-0.00014449,0.00000011,0.00005828,0.000
 13003,0.00011004,-0.00018921,-0.00000903,-0.00000158,0.00001437,0.0000
 2955,-0.00000821,-0.00000591,0.00004638,-0.00000532,-0.00001349,-0.000
 01488,0.00000883,0.00001390,0.00007880,0.00001971,0.00017626,0.0000010
 8,0.00000964,0.00000166,-0.00003702,-0.00000920,0.00006069,0.00004217,
 0.00000856,-0.00001637,-0.00002400,-0.00001649,0.00002253,-0.00010798,
 0.00002204,0.00007216,0.00008972,-0.00003380,-0.00004862,0.00043798,0.
 00062179,-0.00053246,-0.00005796,-0.00027510,0.00042019,0.00211717,0.0
 0085965,-0.00076825,0.00133778,0.00190512,-0.00132882,0.00016785,-0.00
 022035,0.00056163,0.00030469,-0.00023263,0.00042743,-0.00003443,0.0000
 1523,0.00000037,0.00001066,-0.00001326,-0.00000016,-0.00002175,0.00000
 668,0.00001963,-0.00000890,-0.00000702,-0.00000385,-0.00000077,-0.0000
 0936,0.00000091,0.00000388,0.00000234,-0.00000032,-0.00000616,0.000001
 11,-0.00000527,0.00000147,-0.00000456,-0.00000079,-0.00000197,0.000002
 39,0.00000219,-0.00000315,0.00002222,0.00001643,-0.00000190,-0.0000029
 7,0.00000160,0.00000289,-0.00000125,0.00000340,0.00003657,-0.00007302,
 -0.00001875,-0.00001725,0.00004781,-0.00000802,-0.00003311,0.00003866,
 0.00002039,0.00001656,-0.00002563,-0.00000712,-0.00000113,0.00000084,0
 .00000221,-0.00000233,0.00000314,-0.00000141,-0.00000028,0.00000252,0.
 00000014,-0.26809048,-0.09712393,0.05495606,0.28651355,0.00003116,0.00
 001280,-0.00004488,0.00001225,-0.00006336,0.00002301,-0.00018773,0.000
 08721,0.00002755,-0.00000075,-0.00001483,-0.00001267,-0.00003604,0.000
 12212,0.00009361,-0.00000151,0.00000270,0.00000098,-0.00003208,-0.0000
 0192,0.00001082,-0.00005140,-0.00003887,-0.00002849,-0.00001439,0.0000
 2181,0.00002355,0.00007909,-0.00016266,-0.00003821,0.00001474,0.000026
 51,0.00001097,0.00002401,0.00008334,0.00002212,0.00000160,0.00000035,-
 0.00001815,-0.00000783,-0.00000869,0.00000998,-0.00008251,0.00001749,0
 .00001923,0.00004647,-0.00001316,-0.00002618,0.00119404,-0.00258702,-0
 .00063885,0.00006237,0.00112257,-0.00022510,-0.00219449,-0.00086349,0.
 00517674,-0.01514120,-0.00618898,-0.00055214,0.00030084,0.00000014,-0.
 00059641,0.00013064,0.00060279,-0.00002165,0.00005549,0.00005489,-0.00
 002716,-0.00000923,-0.00003204,0.00001270,-0.00000910,0.00000286,0.000
 01346,-0.00000348,-0.00000256,-0.00000255,-0.00000061,-0.00000496,-0.0
 0000078,0.00000185,0.00000007,0.,-0.00000329,-0.00000072,-0.00000574,-
 0.00000017,-0.00000196,0.00000415,0.00000131,0.00000318,0.00000114,-0.
 00000196,0.00000855,0.00000971,-0.00000049,-0.00000145,0.00000014,0.00
 000039,-0.00000079,0.00000009,0.00001076,-0.00002550,-0.00000383,-0.00
 000523,0.00001693,-0.00000500,-0.00001118,0.00001171,0.00000447,0.0000
 0656,-0.00000721,-0.00000217,-0.00000004,0.00000027,0.00000088,-0.0000
 0092,0.00000104,-0.00000082,-0.00000035,0.00000060,0.00000029,-0.09523
 560,-0.08544361,0.02504113,0.10520727,0.08988467,0.00001497,-0.0000080
 4,0.00006982,-0.00009431,-0.00013199,-0.00007226,0.00043719,-0.0000672
 0,0.00012508,-0.00003220,0.00006026,0.00004798,0.00005904,0.00012896,-
 0.00026956,-0.00000705,-0.00000395,0.00001909,0.00000234,0.00001196,0.
 00000485,0.00009191,0.00005385,0.00004355,0.00001539,-0.00002823,-0.00
 003530,0.00021597,-0.00006599,0.00009394,0.00001001,0.00002513,-0.0000
 2045,-0.00005528,-0.00020058,-0.00004620,0.00002329,0.00001591,0.00002
 624,0.00000345,0.00000101,-0.00000516,-0.00000047,0.00002546,0.0000928
 0,-0.00002082,0.00000148,0.00002180,-0.00195638,0.00238809,0.00136288,
 0.00003945,-0.00095538,-0.00060132,0.00319113,0.00400773,-0.00720016,0
 .02533711,0.00671026,-0.00220564,-0.00041573,0.00011901,0.00087502,-0.
 00004374,-0.00098818,0.00043444,-0.00011460,-0.00007897,0.00004431,0.0
 0004502,0.00005904,-0.00001632,0.00000218,0.00000003,-0.00001548,0.000
 00085,-0.00000080,0.00000351,0.00000069,0.00000370,0.00000313,-0.00000
 164,0.00000093,-0.00000056,-0.00000145,-0.00000508,0.00000259,-0.00000
 096,0.00000350,-0.00000484,-0.00000272,-0.00000164,-0.00000046,0.00000
 209,-0.00000240,-0.00000522,0.00000083,0.00000052,0.00000064,0.0000002
 4,0.00000007,0.00000007,-0.00000793,0.00001967,0.00000197,0.00000286,-
 0.00001336,0.00000317,0.00000782,-0.00000971,-0.00000323,-0.00000422,0
 .00000690,0.00000210,0.00000014,-0.00000009,-0.00000056,0.00000059,-0.
 00000086,0.00000039,0.00000003,-0.00000058,-0.00000005,0.05254692,0.02
 429132,-0.05881136,-0.05947332,-0.02817033,0.06183872,-0.00002122,0.00
 005493,-0.00002549,0.00002119,-0.00000924,-0.00005857,0.00006127,-0.00
 010289,-0.00004414,0.00006088,-0.00003560,0.00000989,-0.00005390,-0.00
 000306,-0.00001204,-0.00000063,0.00000076,-0.00000585,-0.00005120,0.00
 002858,0.00002237,0.00002709,0.00003880,0.00000349,0.00000879,-0.00002
 218,-0.00001920,0.00007491,-0.00007488,-0.00006474,0.00000200,0.000018
 21,-0.00001329,0.00001510,0.00001065,-0.00000035,-0.00000991,-0.000005
 94,0.00002203,0.00001182,0.00000842,-0.00001399,0.00004009,-0.00000317
 ,-0.00000925,-0.00005636,0.00002229,0.00002760,-0.00037219,0.00047742,
 0.00065939,-0.00056300,-0.00040244,0.00082155,0.00165636,-0.00033025,-
 0.00113800,-0.00276277,0.00012858,0.00144139,0.00132737,-0.00025504,-0
 .00031639,-0.00019825,0.00024731,-0.00014103,-0.00001926,-0.00002354,0
 .00000226,0.00001377,0.00002265,-0.00000244,0.00001343,-0.00000517,-0.
 00001149,0.00000594,0.00000435,0.00000227,0.00000032,0.00000616,-0.000
 00020,-0.00000240,-0.00000099,-0.00000021,0.00000431,-0.00000431,0.000
 00164,-0.00000063,0.00000471,0.00000155,0.00000131,-0.00000069,-0.0000
 0140,0.00000315,-0.00001321,-0.00001020,0.00000175,0.00000179,-0.00000
 088,-0.00000190,0.00000033,-0.00000267,-0.00002403,0.00005119,0.000010
 40,0.00001107,-0.00003404,0.00000635,0.00002121,-0.00002690,-0.0000125
 4,-0.00001027,0.00001813,0.00000469,0.00000083,-0.00000059,-0.00000132
 ,0.00000154,-0.00000212,0.00000073,0.00000007,-0.00000178,-0.00000007,
 -0.16338601,0.13561590,0.01877250,-0.01615352,0.02129575,0.00219847,0.
 17330305,-0.00008035,0.00013422,0.00006712,-0.00006217,0.00005032,-0.0
 0003409,0.00012706,0.00007560,0.00032767,0.00024972,-0.00001996,-0.000
 10737,-0.00025806,-0.00002061,0.00021603,0.00001829,0.00000390,-0.0000
 2038,-0.00006069,0.00001424,0.00001983,-0.00004887,-0.00000304,0.00002
 505,0.00001347,-0.00000987,-0.00002222,-0.00012439,-0.00037740,-0.0001
 8975,0.00002932,0.00002501,0.00000444,0.00008033,0.00001927,-0.0001449
 3,-0.00007775,-0.00000621,0.00002225,0.00003373,0.00002295,-0.00003030
 ,0.00009415,-0.00001108,-0.00006969,-0.00009160,0.00004380,0.00004785,
 -0.00016260,-0.00186825,0.00034658,0.00014085,0.00101047,-0.00105185,-
 0.00076851,0.00138465,-0.00107018,0.01216198,-0.01413218,-0.00158176,-
 0.00007080,-0.00035735,0.00339689,-0.00057397,0.00069508,-0.00017973,0
 .00011458,-0.00006786,-0.00001969,-0.00008923,0.00002654,0.00003161,0.
 00002526,-0.00000826,-0.00002145,0.00000961,0.00000807,0.00000393,0.00
 000174,0.00000952,-0.00000118,-0.00000404,-0.00000255,0.00000075,0.000
 00741,-0.00000161,0.00000404,-0.00000295,0.00000707,0.00000286,0.00000
 287,-0.00000144,-0.00000262,0.00000220,-0.00002307,-0.00001424,0.00000
 248,0.00000296,-0.00000185,-0.00000335,0.00000107,-0.00000398,-0.00004
 164,0.00007513,0.00002756,0.00001906,-0.00004796,0.00000319,0.00003770
 ,-0.00004161,-0.00002702,-0.00001769,0.00002828,0.00000841,0.00000146,
 -0.00000097,-0.00000256,0.00000220,-0.00000375,0.00000142,0.00000055,-
 0.00000310,0.00000021,0.13494197,-0.20234323,-0.02490320,-0.00899696,0
 .01068093,0.00134636,-0.14773836,0.21693957,-0.00002658,0.00001732,-0.
 00013546,0.00005554,0.00004113,0.00004852,-0.00007749,-0.00033261,-0.0
 0027725,0.00003473,-0.00009541,-0.00006614,-0.00016354,0.00002987,0.00
 021514,0.00000742,0.00000134,-0.00001069,0.00001504,-0.00001271,0.0000
 2778,0.00004108,0.00001616,-0.00003569,-0.00001729,-0.00002126,-0.0000
 0105,0.00000930,-0.00022340,-0.00000289,0.00001905,0.00001748,0.000003
 57,-0.00005349,0.00012804,0.00007286,-0.00000054,-0.00002716,-0.000032
 19,-0.00000499,-0.00000209,0.00000819,-0.00002112,-0.00003099,-0.00003
 939,0.00003043,-0.00001092,-0.00002332,0.00050259,0.00371523,0.0007129
 9,-0.00017729,-0.00239966,-0.00057161,0.00096341,-0.00293102,0.0015983
 2,-0.02213399,0.02390282,0.00320481,0.00011674,0.00325738,-0.00515275,
 -0.00010413,-0.00047955,0.00116768,-0.00002817,0.00003298,-0.00000752,
 0.00003793,-0.00001010,0.00000979,-0.00000566,0.00000106,0.00001391,-0
 .00000276,-0.00000184,-0.00000247,-0.00000127,-0.00000315,-0.00000201,
 0.00000179,-0.00000014,0.00000002,0.00000255,0.00000329,-0.00000193,0.
 00000259,-0.00000321,0.00000664,0.00000163,0.00000254,-0.00000031,-0.0
 0000488,0.00000539,0.00001319,-0.00000049,-0.00000074,-0.00000173,-0.0
 0000035,-0.00000224,-0.00000050,0.00000007,-0.00003730,0.00002546,0.00
 000209,0.00002922,-0.00002089,-0.00000091,0.00001014,-0.00001451,0.000
 00326,-0.00000395,0.00000028,0.00000083,0.00000045,-0.00000005,-0.0000
 0139,-0.00000011,-0.00000052,0.00000019,-0.00000041,0.00000167,0.02244
 116,-0.02735036,-0.04979097,0.00364875,-0.00534199,-0.00187684,-0.0214
 8898,0.02385076,0.05300942,-0.00008547,0.00007014,0.00005049,-0.000041
 63,0.00014331,-0.00000253,0.00003567,-0.00007156,0.00000594,0.00019184
 ,-0.00002634,-0.00009776,-0.00039372,-0.00018252,0.00016789,0.00001671
 ,0.00000052,-0.00002545,0.00000148,-0.00000044,-0.00000689,0.00000341,
 0.00002788,0.00000452,0.00001305,-0.00002450,-0.00001988,-0.00069950,0
 .00001018,0.00007966,0.00001627,-0.00003225,-0.00000778,0.00003551,0.0
 0002894,-0.00005422,-0.00005021,-0.00001828,0.00001585,0.00002524,0.00
 002046,-0.00002242,0.00015139,-0.00004147,-0.00010045,-0.00009511,0.00
 003751,0.00004645,-0.00048988,0.00121705,0.00058391,-0.00022681,-0.000
 79024,0.00032261,0.00145464,0.00074541,-0.00027967,-0.00281864,-0.0026
 1410,-0.00120098,-0.00008628,-0.00026262,-0.00025674,0.00104538,0.0007
 3232,-0.00025415,0.00002347,-0.00005928,0.00000992,-0.00002805,0.00003
 091,0.00001949,0.00002164,-0.00000777,-0.00002000,0.00000851,0.0000070
 1,0.00000331,0.00000102,0.00000926,-0.00000153,-0.00000347,-0.00000256
 ,0.00000040,0.00000901,0.00000218,0.00000776,-0.00000079,0.00000358,0.
 00000025,0.00000159,-0.00000339,-0.00000244,0.00000259,-0.00002152,-0.
 00001617,0.00000143,0.00000288,-0.00000176,-0.00000245,0.00000141,-0.0
 0000246,-0.00003038,0.00006309,0.00001699,0.00001446,-0.00004116,0.000
 00662,0.00002851,-0.00003243,-0.00001753,-0.00001419,0.00002115,0.0000
 0582,0.00000084,-0.00000083,-0.00000196,0.00000191,-0.00000281,0.00000
 132,0.00000058,-0.00000224,-0.00000015,-0.06783866,-0.04408156,-0.0589
 8569,-0.00669403,-0.01544503,-0.02201719,0.00699882,0.01115597,0.01637
 713,0.06949431,0.00004323,-0.00007440,0.00006034,-0.00005408,-0.000151
 81,0.00001526,0.00011854,0.00011686,0.00003614,-0.00010239,0.00010928,
 0.00007828,-0.00000985,0.00015667,-0.00027995,-0.00001238,-0.00000176,
 0.00001768,-0.00000826,-0.00000523,-0.00002260,0.00001551,-0.00000094,
 -0.00000189,0.00000639,0.00001186,0.00000360,0.00015511,0.00012976,-0.
 00000568,-0.00001832,-0.00004394,-0.00003224,-0.00002885,-0.00011220,0
 .00000653,0.00003825,0.00001423,0.00000433,-0.00000801,-0.00000731,0.0
 0000813,-0.00003271,0.00003814,0.00008540,0.00001971,-0.00002556,-0.00
 000513,-0.00060483,-0.00030701,-0.00001405,0.00020275,0.00040967,-0.00
 047837,0.00151733,0.00103853,-0.00200774,0.00600388,0.01125065,0.01702
 388,0.00013206,0.00111590,-0.00069980,-0.00011454,-0.00155251,0.003745
 79,-0.00005649,0.00001024,0.00003208,0.00004056,0.00000683,-0.00003773
 ,-0.00000965,0.00000433,-0.00000187,-0.00000219,-0.00000420,0.00000003
 ,-0.00000025,-0.00000191,0.00000227,-0.00000045,0.00000096,-0.00000106
 ,-0.00000529,-0.00000409,-0.00000216,-0.00000094,-0.00000011,-0.000003
 73,-0.00000175,-0.00000068,0.00000157,0.00000221,0.00000783,-0.0000026
 0,0.00000046,-0.00000026,0.00000125,0.00000059,-0.00000094,0.00000054,
 0.00001554,-0.00001327,-0.00002578,-0.00000603,0.00000607,0.00001209,-
 0.00001406,0.00001246,0.00001988,0.00000365,-0.00001018,-0.00000386,-0
 .00000115,0.00000026,0.00000097,0.00000017,0.00000165,0.00000003,-0.00
 000033,0.00000188,-0.00000107,-0.04603895,-0.14446472,-0.12515556,-0.0
 0165737,-0.00730179,-0.00854780,-0.00896050,-0.01190730,-0.01574024,0.
 04943371,0.15154807,0.00009036,-0.00002421,-0.00000757,-0.00005182,-0.
 00018702,-0.00009300,0.00011181,0.00008712,-0.00003207,-0.00008936,0.0
 0004717,0.00006482,0.00010550,0.00027671,-0.00020347,-0.00001198,-0.00
 000399,0.00002603,-0.00000163,0.00000476,0.00000570,0.00005015,-0.0000
 0487,-0.00002849,-0.00000461,0.00002175,0.00002581,0.00045812,-0.00017
 968,0.00023125,0.00004806,0.00005732,-0.00000277,-0.00003016,-0.000108
 88,0.00000269,0.00004490,0.00003533,-0.00001170,-0.00001935,-0.0000179
 5,0.00002741,-0.00013181,0.00005115,0.00017096,0.00007893,-0.00002602,
 -0.00003064,-0.00032468,-0.00086798,-0.00015945,0.00039281,0.00061285,
 0.00002882,0.00013563,-0.00043033,0.00275694,-0.00958174,-0.01834342,-
 0.02284168,0.00014499,0.00009314,0.00121616,-0.00016723,0.00417900,-0.
 00384973,-0.00005294,0.00001214,-0.00001106,0.00003488,-0.00000311,0.0
 0004910,-0.00002040,0.00000598,0.00000482,-0.00000737,-0.00000840,-0.0
 0000112,-0.00000050,-0.00000592,0.00000278,0.00000186,0.00000326,-0.00
 000120,-0.00001094,-0.00000669,-0.00000556,0.00000126,-0.00000016,-0.0
 0000415,-0.00000386,0.00000236,0.00000177,-0.00000209,0.00002076,0.000
 01327,0.00000023,-0.00000226,0.00000172,0.00000180,-0.00000207,0.00000
 231,0.00002623,-0.00004988,-0.00002237,-0.00001125,0.00003156,-0.00000
 038,-0.00002401,0.00002743,0.00002029,0.00001043,-0.00001827,-0.000005
 99,-0.00000145,0.00000057,0.00000158,-0.00000115,0.00000263,-0.0000005
 0,-0.00000042,0.00000254,-0.00000061,-0.05833303,-0.12220086,-0.200715
 50,0.00209012,0.00525637,0.00607288,-0.00061380,-0.00025474,-0.0020715
 9,0.06566950,0.13191486,0.21937348\\-0.00000144,0.00000056,-0.00000372
 ,0.00000327,-0.00000163,0.00000357,-0.00000390,0.00000182,-0.00000138,
 -0.00000010,0.00000030,0.00000058,-0.00000256,0.00000078,-0.00000344,-
 0.00000081,0.00000054,-0.00000057,0.00000005,0.00000025,-0.00000143,-0
 .00000067,-0.00000184,-0.00000011,-0.00000025,-0.00000138,0.00000055,-
 0.00000262,0.00000134,-0.00000105,-0.00000066,0.00000062,-0.00000172,0
 .00000139,-0.00000153,0.00000247,-0.00000054,-0.00000203,-0.00000129,-
 0.00000100,-0.00000122,-0.00000174,-0.00000074,0.00000066,-0.00000438,
 0.00000040,0.00000070,0.00000104,0.00000253,-0.00000022,0.00000293,0.0
 0000278,-0.00000249,-0.00000067,0.00000140,-0.00000095,-0.00000430,-0.
 00000173,0.00000196,0.00000488,-0.00000086,-0.00000157,0.00000032,0.00
 000070,-0.00000216,0.00000145,-0.00000059,-0.00000139,-0.00000197,-0.0
 0000097,-0.00000139,-0.00000143,0.00000008,0.00000044,-0.00000076,-0.0
 0000031,0.00000048,-0.00000215,-0.00000125,0.00000022,-0.00000164,-0.0
 0000065,0.00000032,-0.00000123,-0.00000039,-0.00000097,0.00000133,0.00
 000036,0.00000014,0.00000124,-0.00000018,0.00000002,-0.00000049,0.0000
 0063,0.00000301,-0.00000070,0.00000027,0.00000043,-0.00000016,0.000000
 18,0.00000193,0.00000024,0.00000714,-0.00000137,-0.00000323,-0.0000008
 7,0.00000056,0.00000385,-0.00000286,0.00000380,0.00000042,0.00000038,0
 .00000150,0.00000323,0.00000089,0.00000061,0.00000130,0.00000057,0.000
 00113,0.00000179,0.00000060,0.00000025,0.00000128,0.00000323,-0.000002
 81,0.00000240,-0.00000075,0.00000123,0.00000146,-0.00000120,-0.0000006
 8,0.00000226,0.00000107,0.00000004,0.00000096\\\@


 THE TEST OF A FIRST RATE INTELLIGENCE IS THE ABILITY TO HOLD TWO OPPOSED
 IDEAS IN THE MIND AT THE SAME TIME, AND STILL RETAIN THE ABILITY TO FUNCTION.
 ONE SHOULD, FOR EXAMPLE, BE ABLE TO SEE THAT THINGS ARE HOPELESS AND YET BE
 DETERMINED TO MAKE THEM OTHERWISE.

                                                       -- F. SCOTT FITZGERALD
 Job cpu time:       0 days  5 hours 38 minutes 19.3 seconds.
 Elapsed time:       0 days  1 hours 24 minutes 58.7 seconds.
 File lengths (MBytes):  RWF=   1050 Int=      0 D2E=      0 Chk=     24 Scr=      1
 Normal termination of Gaussian 16 at Mon Oct 28 20:20:36 2024.
