 Entering Gaussian System, Link 0=g16
 Initial command:
 /apps/brussel/RL8/zen4/software/Gaussian/G16.B.01/g16/l1.exe "/tmp/10235433/Gau-2027714.inp" -scrdir="/tmp/10235433/"
 Entering Link 1 = /apps/brussel/RL8/zen4/software/Gaussian/G16.B.01/g16/l1.exe PID=   2027716.
  
 Copyright (c) 1988-2017, Gaussian, Inc.  All Rights Reserved.
  
 This is part of the Gaussian(R) 16 program.  It is based on
 the Gaussian(R) 09 system (copyright 2009, Gaussian, Inc.),
 the Gaussian(R) 03 system (copyright 2003, Gaussian, Inc.),
 the Gaussian(R) 98 system (copyright 1998, Gaussian, Inc.),
 the Gaussian(R) 94 system (copyright 1995, Gaussian, Inc.),
 the Gaussian 92(TM) system (copyright 1992, Gaussian, Inc.),
 the Gaussian 90(TM) system (copyright 1990, Gaussian, Inc.),
 the Gaussian 88(TM) system (copyright 1988, Gaussian, Inc.),
 the Gaussian 86(TM) system (copyright 1986, Carnegie Mellon
 University), and the Gaussian 82(TM) system (copyright 1983,
 Carnegie Mellon University). Gaussian is a federally registered
 trademark of Gaussian, Inc.
  
 This software contains proprietary and confidential information,
 including trade secrets, belonging to Gaussian, Inc.
  
 This software is provided under written license and may be
 used, copied, transmitted, or stored only in accord with that
 written license.
  
 The following legend is applicable only to US Government
 contracts under FAR:
  
                    RESTRICTED RIGHTS LEGEND
  
 Use, reproduction and disclosure by the US Government is
 subject to restrictions as set forth in subparagraphs (a)
 and (c) of the Commercial Computer Software - Restricted
 Rights clause in FAR 52.227-19.
  
 Gaussian, Inc.
 340 Quinnipiac St., Bldg. 40, Wallingford CT 06492
  
  
 ---------------------------------------------------------------
 Warning -- This program may not be used in any manner that
 competes with the business of Gaussian, Inc. or will provide
 assistance to any competitor of Gaussian, Inc.  The licensee
 of this program is prohibited from giving any competitor of
 Gaussian, Inc. access to this program.  By using this program,
 the user acknowledges that Gaussian, Inc. is engaged in the
 business of creating and licensing software in the field of
 computational chemistry and represents and warrants to the
 licensee that it is not a competitor of Gaussian, Inc. and that
 it will not use this program in any manner prohibited above.
 ---------------------------------------------------------------
  

 Cite this work as:
 Gaussian 16, Revision B.01,
 M. J. Frisch, G. W. Trucks, H. B. Schlegel, G. E. Scuseria, 
 M. A. Robb, J. R. Cheeseman, G. Scalmani, V. Barone, 
 G. A. Petersson, H. Nakatsuji, X. Li, M. Caricato, A. V. Marenich, 
 J. Bloino, B. G. Janesko, R. Gomperts, B. Mennucci, H. P. Hratchian, 
 J. V. Ortiz, A. F. Izmaylov, J. L. Sonnenberg, D. Williams-Young, 
 F. Ding, F. Lipparini, F. Egidi, J. Goings, B. Peng, A. Petrone, 
 T. Henderson, D. Ranasinghe, V. G. Zakrzewski, J. Gao, N. Rega, 
 G. Zheng, W. Liang, M. Hada, M. Ehara, K. Toyota, R. Fukuda, 
 J. Hasegawa, M. Ishida, T. Nakajima, Y. Honda, O. Kitao, H. Nakai, 
 T. Vreven, K. Throssell, J. A. Montgomery, Jr., J. E. Peralta, 
 F. Ogliaro, M. J. Bearpark, J. J. Heyd, E. N. Brothers, K. N. Kudin, 
 V. N. Staroverov, T. A. Keith, R. Kobayashi, J. Normand, 
 K. Raghavachari, A. P. Rendell, J. C. Burant, S. S. Iyengar, 
 J. Tomasi, M. Cossi, J. M. Millam, M. Klene, C. Adamo, R. Cammi, 
 J. W. Ochterski, R. L. Martin, K. Morokuma, O. Farkas, 
 J. B. Foresman, and D. J. Fox, Gaussian, Inc., Wallingford CT, 2016.
 
 ******************************************
 Gaussian 16:  ES64L-G16RevB.01 20-Dec-2017
                 9-Dec-2024 
 ******************************************
 %mem=32000MB
 %nprocshared=20
 Will use up to   20 processors via shared memory.
 %chk=FvFv_1_Endo_TS.chk
 ----------------------------------------------------------------------
 # opt=(calcall,ts,noeigentest) freq cc-pvdz empiricaldispersion=gd3 m0
 62x
 ----------------------------------------------------------------------
 1/5=1,10=4,11=1,18=20,26=3,38=1/1,3;
 2/9=110,12=2,17=6,18=5,40=1/2;
 3/5=16,11=2,25=1,30=1,71=2,74=-55,124=31,140=1/1,2,3;
 4//1;
 5/5=2,38=5/2;
 8/6=4,10=90,11=11/1;
 11/6=1,8=1,9=11,15=111,16=1/1,2,10;
 10/6=1/2;
 6/7=2,8=2,9=2,10=2,18=1,28=1/1;
 7/10=1,25=1/1,2,3,16;
 1/5=1,10=4,11=1,18=20,26=3/3(3);
 2/9=110/2;
 7/8=1,9=1,25=1,44=-1/16;
 99//99;
 2/9=110/2;
 3/5=16,11=2,25=1,30=1,71=2,74=-55,124=31,140=1/1,2,3;
 4/5=5,16=3,69=1/1;
 5/5=2,38=5/2;
 8/6=4,10=90,11=11/1;
 11/6=1,8=1,9=11,15=111,16=1/1,2,10;
 10/6=1/2;
 7/10=1,25=1/1,2,3,16;
 1/5=1,10=4,11=1,18=20,26=3/3(-8);
 2/9=110/2;
 6/7=2,8=2,9=2,10=2,18=1,19=2,28=1/1;
 7/8=1,9=1,25=1,44=-1/16;
 99//99;
 --------------------
 FuranMaleimideTSEndo
 --------------------
 Symbolic Z-matrix:
 Charge =  0 Multiplicity = 1
 C                     0.8618    0.76906  -1.37999 
 C                     1.04974   2.30149  -1.14113 
 C                    -0.09773   2.49085   0.38334 
 C                     0.52039   1.76192   1.56392 
 C                     0.36725   0.44507   1.36339 
 H                    -0.34159   3.54761   0.52924 
 H                     1.07205   2.2434    2.3717 
 H                     0.77602  -0.37216   1.95766 
 C                    -0.37084   0.26926   0.04596 
 H                    -0.86922  -0.69462  -0.09822 
 H                     0.37651   0.57522  -2.34831 
 H                     0.67289   2.90208  -1.98273 
 C                     3.18702   1.28856  -1.08377 
 H                     4.26359   1.16521  -0.9617 
 C                     2.2607    0.17428  -1.34812 
 C                     2.53468   2.45716  -0.96676 
 H                     3.01352   3.4156   -0.75925 
 C                    -1.2278    1.52676   0.05889 
 C                     2.56848  -1.12364  -1.53899 
 C                    -2.53154   1.69707  -0.16565 
 C                     1.50579  -2.17757  -1.70476 
 H                     1.84297  -2.97632  -2.38301 
 H                     1.27549  -2.64708  -0.73254 
 H                     0.57025  -1.76252  -2.10313 
 C                     3.98893  -1.63015  -1.49589 
 H                     4.70807  -0.80929  -1.60746 
 H                     4.15742  -2.3228   -2.33601 
 C                     4.28767  -2.38847  -0.18437 
 H                     5.36387  -2.59619  -0.10691 
 H                     3.73255  -3.33358  -0.1363 
 C                     3.85705  -1.54888   0.99123 
 O                     2.89487  -1.75469   1.69085 
 O                     4.6679   -0.48719   1.13927 
 C                     4.28857   0.42662   2.16917 
 H                     4.19114  -0.09732   3.12915 
 H                     5.08761   1.17377   2.21391 
 H                     3.33178   0.90082   1.91068 
 C                    -3.21434   3.03566  -0.07955 
 H                    -3.66329   3.30509  -1.04917 
 H                    -4.03816   3.00725   0.65211 
 H                    -2.52631   3.83638   0.21727 
 C                    -3.42887   0.5122   -0.44825 
 H                    -4.27696   0.82631  -1.07469 
 H                    -2.88383  -0.26023  -1.01154 
 C                    -3.97589  -0.1076    0.84729 
 H                    -4.54036   0.65152   1.41131 
 H                    -3.15724  -0.47359   1.47958 
 C                    -4.90071  -1.26869   0.58058 
 O                    -5.92712  -0.90578  -0.21365 
 O                    -4.76376  -2.39166   0.99986 
 C                    -6.84385  -1.95385  -0.51859 
 H                    -7.26509  -2.37738   0.40281 
 H                    -7.62884  -1.49828  -1.13029 
 H                    -6.33889  -2.75694  -1.07249 
 
 Add virtual bond connecting atoms C3         and C2         Dist= 3.62D+00.
 Add virtual bond connecting atoms C9         and C1         Dist= 3.68D+00.

 GradGradGradGradGradGradGradGradGradGradGradGradGradGradGradGradGradGrad
 Berny optimization.
 Initialization pass.
                           ----------------------------
                           !    Initial Parameters    !
                           ! (Angstroms and Degrees)  !
 --------------------------                            --------------------------
 ! Name  Definition              Value          Derivative Info.                !
 --------------------------------------------------------------------------------
 ! R1    R(1,2)                  1.5623         calculate D2E/DX2 analytically  !
 ! R2    R(1,9)                  1.95           calculate D2E/DX2 analytically  !
 ! R3    R(1,11)                 1.1003         calculate D2E/DX2 analytically  !
 ! R4    R(1,15)                 1.5204         calculate D2E/DX2 analytically  !
 ! R5    R(2,3)                  1.9174         calculate D2E/DX2 analytically  !
 ! R6    R(2,12)                 1.1005         calculate D2E/DX2 analytically  !
 ! R7    R(2,16)                 1.5032         calculate D2E/DX2 analytically  !
 ! R8    R(3,4)                  1.5189         calculate D2E/DX2 analytically  !
 ! R9    R(3,6)                  1.0943         calculate D2E/DX2 analytically  !
 ! R10   R(3,18)                 1.5205         calculate D2E/DX2 analytically  !
 ! R11   R(4,5)                  1.3408         calculate D2E/DX2 analytically  !
 ! R12   R(4,7)                  1.0903         calculate D2E/DX2 analytically  !
 ! R13   R(5,8)                  1.09           calculate D2E/DX2 analytically  !
 ! R14   R(5,9)                  1.5203         calculate D2E/DX2 analytically  !
 ! R15   R(9,10)                 1.0946         calculate D2E/DX2 analytically  !
 ! R16   R(9,18)                 1.5218         calculate D2E/DX2 analytically  !
 ! R17   R(13,14)                1.0905         calculate D2E/DX2 analytically  !
 ! R18   R(13,15)                1.4729         calculate D2E/DX2 analytically  !
 ! R19   R(13,16)                1.3435         calculate D2E/DX2 analytically  !
 ! R20   R(15,19)                1.3475         calculate D2E/DX2 analytically  !
 ! R21   R(16,17)                1.0913         calculate D2E/DX2 analytically  !
 ! R22   R(18,20)                1.3339         calculate D2E/DX2 analytically  !
 ! R23   R(19,21)                1.5058         calculate D2E/DX2 analytically  !
 ! R24   R(19,25)                1.5087         calculate D2E/DX2 analytically  !
 ! R25   R(20,38)                1.5051         calculate D2E/DX2 analytically  !
 ! R26   R(20,42)                1.5129         calculate D2E/DX2 analytically  !
 ! R27   R(21,22)                1.1008         calculate D2E/DX2 analytically  !
 ! R28   R(21,23)                1.1039         calculate D2E/DX2 analytically  !
 ! R29   R(21,24)                1.0983         calculate D2E/DX2 analytically  !
 ! R30   R(25,26)                1.097          calculate D2E/DX2 analytically  !
 ! R31   R(25,27)                1.1018         calculate D2E/DX2 analytically  !
 ! R32   R(25,28)                1.5442         calculate D2E/DX2 analytically  !
 ! R33   R(28,29)                1.0988         calculate D2E/DX2 analytically  !
 ! R34   R(28,30)                1.0971         calculate D2E/DX2 analytically  !
 ! R35   R(28,31)                1.5074         calculate D2E/DX2 analytically  !
 ! R36   R(31,32)                1.2073         calculate D2E/DX2 analytically  !
 ! R37   R(31,33)                1.3441         calculate D2E/DX2 analytically  !
 ! R38   R(33,34)                1.4282         calculate D2E/DX2 analytically  !
 ! R39   R(34,35)                1.098          calculate D2E/DX2 analytically  !
 ! R40   R(34,36)                1.0949         calculate D2E/DX2 analytically  !
 ! R41   R(34,37)                1.0987         calculate D2E/DX2 analytically  !
 ! R42   R(38,39)                1.102          calculate D2E/DX2 analytically  !
 ! R43   R(38,40)                1.1022         calculate D2E/DX2 analytically  !
 ! R44   R(38,41)                1.0966         calculate D2E/DX2 analytically  !
 ! R45   R(42,43)                1.1002         calculate D2E/DX2 analytically  !
 ! R46   R(42,44)                1.1005         calculate D2E/DX2 analytically  !
 ! R47   R(42,45)                1.5368         calculate D2E/DX2 analytically  !
 ! R48   R(45,46)                1.1014         calculate D2E/DX2 analytically  !
 ! R49   R(45,47)                1.0972         calculate D2E/DX2 analytically  !
 ! R50   R(45,48)                1.5082         calculate D2E/DX2 analytically  !
 ! R51   R(48,49)                1.3476         calculate D2E/DX2 analytically  !
 ! R52   R(48,50)                1.2065         calculate D2E/DX2 analytically  !
 ! R53   R(49,51)                1.4254         calculate D2E/DX2 analytically  !
 ! R54   R(51,52)                1.0981         calculate D2E/DX2 analytically  !
 ! R55   R(51,53)                1.0945         calculate D2E/DX2 analytically  !
 ! R56   R(51,54)                1.0985         calculate D2E/DX2 analytically  !
 ! A1    A(2,1,9)              102.4541         calculate D2E/DX2 analytically  !
 ! A2    A(2,1,11)             111.1252         calculate D2E/DX2 analytically  !
 ! A3    A(2,1,15)             105.6539         calculate D2E/DX2 analytically  !
 ! A4    A(9,1,11)             108.6376         calculate D2E/DX2 analytically  !
 ! A5    A(9,1,15)             117.7752         calculate D2E/DX2 analytically  !
 ! A6    A(11,1,15)            110.8128         calculate D2E/DX2 analytically  !
 ! A7    A(1,2,3)               98.4204         calculate D2E/DX2 analytically  !
 ! A8    A(1,2,12)             112.1614         calculate D2E/DX2 analytically  !
 ! A9    A(1,2,16)             103.7777         calculate D2E/DX2 analytically  !
 ! A10   A(3,2,12)             110.4384         calculate D2E/DX2 analytically  !
 ! A11   A(3,2,16)             119.2556         calculate D2E/DX2 analytically  !
 ! A12   A(12,2,16)            111.7449         calculate D2E/DX2 analytically  !
 ! A13   A(2,3,4)              109.0885         calculate D2E/DX2 analytically  !
 ! A14   A(2,3,6)              109.5561         calculate D2E/DX2 analytically  !
 ! A15   A(2,3,18)             102.2692         calculate D2E/DX2 analytically  !
 ! A16   A(4,3,6)              116.7752         calculate D2E/DX2 analytically  !
 ! A17   A(4,3,18)              99.4403         calculate D2E/DX2 analytically  !
 ! A18   A(6,3,18)             118.3691         calculate D2E/DX2 analytically  !
 ! A19   A(3,4,5)              107.9748         calculate D2E/DX2 analytically  !
 ! A20   A(3,4,7)              124.7388         calculate D2E/DX2 analytically  !
 ! A21   A(5,4,7)              127.0372         calculate D2E/DX2 analytically  !
 ! A22   A(4,5,8)              127.7331         calculate D2E/DX2 analytically  !
 ! A23   A(4,5,9)              107.3754         calculate D2E/DX2 analytically  !
 ! A24   A(8,5,9)              124.5974         calculate D2E/DX2 analytically  !
 ! A25   A(1,9,5)              107.2863         calculate D2E/DX2 analytically  !
 ! A26   A(1,9,10)             114.6567         calculate D2E/DX2 analytically  !
 ! A27   A(1,9,18)              98.6489         calculate D2E/DX2 analytically  !
 ! A28   A(5,9,10)             115.9131         calculate D2E/DX2 analytically  !
 ! A29   A(5,9,18)              99.815          calculate D2E/DX2 analytically  !
 ! A30   A(10,9,18)            118.1868         calculate D2E/DX2 analytically  !
 ! A31   A(14,13,15)           123.7379         calculate D2E/DX2 analytically  !
 ! A32   A(14,13,16)           124.6125         calculate D2E/DX2 analytically  !
 ! A33   A(15,13,16)           111.6108         calculate D2E/DX2 analytically  !
 ! A34   A(1,15,13)            106.6455         calculate D2E/DX2 analytically  !
 ! A35   A(1,15,19)            125.7309         calculate D2E/DX2 analytically  !
 ! A36   A(13,15,19)           127.6215         calculate D2E/DX2 analytically  !
 ! A37   A(2,16,13)            112.3013         calculate D2E/DX2 analytically  !
 ! A38   A(2,16,17)            123.1234         calculate D2E/DX2 analytically  !
 ! A39   A(13,16,17)           124.5727         calculate D2E/DX2 analytically  !
 ! A40   A(3,18,9)              96.1558         calculate D2E/DX2 analytically  !
 ! A41   A(3,18,20)            132.9547         calculate D2E/DX2 analytically  !
 ! A42   A(9,18,20)            130.8812         calculate D2E/DX2 analytically  !
 ! A43   A(15,19,21)           121.9075         calculate D2E/DX2 analytically  !
 ! A44   A(15,19,25)           122.3017         calculate D2E/DX2 analytically  !
 ! A45   A(21,19,25)           115.6337         calculate D2E/DX2 analytically  !
 ! A46   A(18,20,38)           123.1839         calculate D2E/DX2 analytically  !
 ! A47   A(18,20,42)           120.7408         calculate D2E/DX2 analytically  !
 ! A48   A(38,20,42)           115.9848         calculate D2E/DX2 analytically  !
 ! A49   A(19,21,22)           111.0709         calculate D2E/DX2 analytically  !
 ! A50   A(19,21,23)           110.3613         calculate D2E/DX2 analytically  !
 ! A51   A(19,21,24)           112.1219         calculate D2E/DX2 analytically  !
 ! A52   A(22,21,23)           107.3334         calculate D2E/DX2 analytically  !
 ! A53   A(22,21,24)           108.1585         calculate D2E/DX2 analytically  !
 ! A54   A(23,21,24)           107.6057         calculate D2E/DX2 analytically  !
 ! A55   A(19,25,26)           111.2905         calculate D2E/DX2 analytically  !
 ! A56   A(19,25,27)           109.4666         calculate D2E/DX2 analytically  !
 ! A57   A(19,25,28)           111.7953         calculate D2E/DX2 analytically  !
 ! A58   A(26,25,27)           107.0145         calculate D2E/DX2 analytically  !
 ! A59   A(26,25,28)           109.0881         calculate D2E/DX2 analytically  !
 ! A60   A(27,25,28)           108.0178         calculate D2E/DX2 analytically  !
 ! A61   A(25,28,29)           110.011          calculate D2E/DX2 analytically  !
 ! A62   A(25,28,30)           111.2455         calculate D2E/DX2 analytically  !
 ! A63   A(25,28,31)           109.487          calculate D2E/DX2 analytically  !
 ! A64   A(29,28,30)           109.2459         calculate D2E/DX2 analytically  !
 ! A65   A(29,28,31)           109.2756         calculate D2E/DX2 analytically  !
 ! A66   A(30,28,31)           107.5228         calculate D2E/DX2 analytically  !
 ! A67   A(28,31,32)           125.7775         calculate D2E/DX2 analytically  !
 ! A68   A(28,31,33)           110.7014         calculate D2E/DX2 analytically  !
 ! A69   A(32,31,33)           123.4775         calculate D2E/DX2 analytically  !
 ! A70   A(31,33,34)           115.1256         calculate D2E/DX2 analytically  !
 ! A71   A(33,34,35)           110.4102         calculate D2E/DX2 analytically  !
 ! A72   A(33,34,36)           105.7992         calculate D2E/DX2 analytically  !
 ! A73   A(33,34,37)           109.7433         calculate D2E/DX2 analytically  !
 ! A74   A(35,34,36)           110.7734         calculate D2E/DX2 analytically  !
 ! A75   A(35,34,37)           109.5345         calculate D2E/DX2 analytically  !
 ! A76   A(36,34,37)           110.5265         calculate D2E/DX2 analytically  !
 ! A77   A(20,38,39)           110.6051         calculate D2E/DX2 analytically  !
 ! A78   A(20,38,40)           110.7393         calculate D2E/DX2 analytically  !
 ! A79   A(20,38,41)           112.3476         calculate D2E/DX2 analytically  !
 ! A80   A(39,38,40)           106.6119         calculate D2E/DX2 analytically  !
 ! A81   A(39,38,41)           108.3758         calculate D2E/DX2 analytically  !
 ! A82   A(40,38,41)           107.9448         calculate D2E/DX2 analytically  !
 ! A83   A(20,42,43)           109.8751         calculate D2E/DX2 analytically  !
 ! A84   A(20,42,44)           110.584          calculate D2E/DX2 analytically  !
 ! A85   A(20,42,45)           111.6845         calculate D2E/DX2 analytically  !
 ! A86   A(43,42,44)           106.9026         calculate D2E/DX2 analytically  !
 ! A87   A(43,42,45)           108.7094         calculate D2E/DX2 analytically  !
 ! A88   A(44,42,45)           108.9479         calculate D2E/DX2 analytically  !
 ! A89   A(42,45,46)           109.6428         calculate D2E/DX2 analytically  !
 ! A90   A(42,45,47)           110.7775         calculate D2E/DX2 analytically  !
 ! A91   A(42,45,48)           112.3139         calculate D2E/DX2 analytically  !
 ! A92   A(46,45,47)           108.493          calculate D2E/DX2 analytically  !
 ! A93   A(46,45,48)           107.8738         calculate D2E/DX2 analytically  !
 ! A94   A(47,45,48)           107.6155         calculate D2E/DX2 analytically  !
 ! A95   A(45,48,49)           111.3432         calculate D2E/DX2 analytically  !
 ! A96   A(45,48,50)           125.8394         calculate D2E/DX2 analytically  !
 ! A97   A(49,48,50)           122.8154         calculate D2E/DX2 analytically  !
 ! A98   A(48,49,51)           114.703          calculate D2E/DX2 analytically  !
 ! A99   A(49,51,52)           110.536          calculate D2E/DX2 analytically  !
 ! A100  A(49,51,53)           105.9485         calculate D2E/DX2 analytically  !
 ! A101  A(49,51,54)           110.4729         calculate D2E/DX2 analytically  !
 ! A102  A(52,51,53)           110.7545         calculate D2E/DX2 analytically  !
 ! A103  A(52,51,54)           108.5097         calculate D2E/DX2 analytically  !
 ! A104  A(53,51,54)           110.6207         calculate D2E/DX2 analytically  !
 ! D1    D(9,1,2,3)             -0.1471         calculate D2E/DX2 analytically  !
 ! D2    D(9,1,2,12)          -116.344          calculate D2E/DX2 analytically  !
 ! D3    D(9,1,2,16)           122.8753         calculate D2E/DX2 analytically  !
 ! D4    D(11,1,2,3)           115.7141         calculate D2E/DX2 analytically  !
 ! D5    D(11,1,2,12)           -0.4828         calculate D2E/DX2 analytically  !
 ! D6    D(11,1,2,16)         -121.2635         calculate D2E/DX2 analytically  !
 ! D7    D(15,1,2,3)          -124.0304         calculate D2E/DX2 analytically  !
 ! D8    D(15,1,2,12)          119.7727         calculate D2E/DX2 analytically  !
 ! D9    D(15,1,2,16)           -1.008          calculate D2E/DX2 analytically  !
 ! D10   D(2,1,9,5)            -66.7255         calculate D2E/DX2 analytically  !
 ! D11   D(2,1,9,10)           163.0002         calculate D2E/DX2 analytically  !
 ! D12   D(2,1,9,18)            36.4492         calculate D2E/DX2 analytically  !
 ! D13   D(11,1,9,5)           175.6287         calculate D2E/DX2 analytically  !
 ! D14   D(11,1,9,10)           45.3543         calculate D2E/DX2 analytically  !
 ! D15   D(11,1,9,18)          -81.1966         calculate D2E/DX2 analytically  !
 ! D16   D(15,1,9,5)            48.6553         calculate D2E/DX2 analytically  !
 ! D17   D(15,1,9,10)          -81.6191         calculate D2E/DX2 analytically  !
 ! D18   D(15,1,9,18)          151.83           calculate D2E/DX2 analytically  !
 ! D19   D(2,1,15,13)            0.9545         calculate D2E/DX2 analytically  !
 ! D20   D(2,1,15,19)         -178.5492         calculate D2E/DX2 analytically  !
 ! D21   D(9,1,15,13)         -112.6684         calculate D2E/DX2 analytically  !
 ! D22   D(9,1,15,19)           67.8279         calculate D2E/DX2 analytically  !
 ! D23   D(11,1,15,13)         121.4144         calculate D2E/DX2 analytically  !
 ! D24   D(11,1,15,19)         -58.0893         calculate D2E/DX2 analytically  !
 ! D25   D(1,2,3,4)             67.9582         calculate D2E/DX2 analytically  !
 ! D26   D(1,2,3,6)           -163.0794         calculate D2E/DX2 analytically  !
 ! D27   D(1,2,3,18)           -36.6897         calculate D2E/DX2 analytically  !
 ! D28   D(12,2,3,4)          -174.5185         calculate D2E/DX2 analytically  !
 ! D29   D(12,2,3,6)           -45.556          calculate D2E/DX2 analytically  !
 ! D30   D(12,2,3,18)           80.8336         calculate D2E/DX2 analytically  !
 ! D31   D(16,2,3,4)           -43.0725         calculate D2E/DX2 analytically  !
 ! D32   D(16,2,3,6)            85.8899         calculate D2E/DX2 analytically  !
 ! D33   D(16,2,3,18)         -147.7204         calculate D2E/DX2 analytically  !
 ! D34   D(1,2,16,13)            0.7419         calculate D2E/DX2 analytically  !
 ! D35   D(1,2,16,17)         -178.6958         calculate D2E/DX2 analytically  !
 ! D36   D(3,2,16,13)          108.8115         calculate D2E/DX2 analytically  !
 ! D37   D(3,2,16,17)          -70.6262         calculate D2E/DX2 analytically  !
 ! D38   D(12,2,16,13)        -120.319          calculate D2E/DX2 analytically  !
 ! D39   D(12,2,16,17)          60.2433         calculate D2E/DX2 analytically  !
 ! D40   D(2,3,4,5)            -73.9532         calculate D2E/DX2 analytically  !
 ! D41   D(2,3,4,7)            100.65           calculate D2E/DX2 analytically  !
 ! D42   D(6,3,4,5)            161.2016         calculate D2E/DX2 analytically  !
 ! D43   D(6,3,4,7)            -24.1953         calculate D2E/DX2 analytically  !
 ! D44   D(18,3,4,5)            32.6354         calculate D2E/DX2 analytically  !
 ! D45   D(18,3,4,7)          -152.7615         calculate D2E/DX2 analytically  !
 ! D46   D(2,3,18,9)            62.5302         calculate D2E/DX2 analytically  !
 ! D47   D(2,3,18,20)         -116.481          calculate D2E/DX2 analytically  !
 ! D48   D(4,3,18,9)           -49.5204         calculate D2E/DX2 analytically  !
 ! D49   D(4,3,18,20)          131.4684         calculate D2E/DX2 analytically  !
 ! D50   D(6,3,18,9)          -177.0226         calculate D2E/DX2 analytically  !
 ! D51   D(6,3,18,20)            3.9661         calculate D2E/DX2 analytically  !
 ! D52   D(3,4,5,8)            173.4108         calculate D2E/DX2 analytically  !
 ! D53   D(3,4,5,9)             -0.5291         calculate D2E/DX2 analytically  !
 ! D54   D(7,4,5,8)             -1.0329         calculate D2E/DX2 analytically  !
 ! D55   D(7,4,5,9)           -174.9728         calculate D2E/DX2 analytically  !
 ! D56   D(4,5,9,1)             70.5592         calculate D2E/DX2 analytically  !
 ! D57   D(4,5,9,10)          -159.8757         calculate D2E/DX2 analytically  !
 ! D58   D(4,5,9,18)           -31.7783         calculate D2E/DX2 analytically  !
 ! D59   D(8,5,9,1)           -103.6193         calculate D2E/DX2 analytically  !
 ! D60   D(8,5,9,10)            25.9458         calculate D2E/DX2 analytically  !
 ! D61   D(8,5,9,18)           154.0432         calculate D2E/DX2 analytically  !
 ! D62   D(1,9,18,3)           -59.9356         calculate D2E/DX2 analytically  !
 ! D63   D(1,9,18,20)          119.1072         calculate D2E/DX2 analytically  !
 ! D64   D(5,9,18,3)            49.4147         calculate D2E/DX2 analytically  !
 ! D65   D(5,9,18,20)         -131.5424         calculate D2E/DX2 analytically  !
 ! D66   D(10,9,18,3)          175.99           calculate D2E/DX2 analytically  !
 ! D67   D(10,9,18,20)          -4.9672         calculate D2E/DX2 analytically  !
 ! D68   D(14,13,15,1)         177.2898         calculate D2E/DX2 analytically  !
 ! D69   D(14,13,15,19)         -3.2189         calculate D2E/DX2 analytically  !
 ! D70   D(16,13,15,1)          -0.536          calculate D2E/DX2 analytically  !
 ! D71   D(16,13,15,19)        178.9553         calculate D2E/DX2 analytically  !
 ! D72   D(14,13,16,2)        -177.9524         calculate D2E/DX2 analytically  !
 ! D73   D(14,13,16,17)          1.4757         calculate D2E/DX2 analytically  !
 ! D74   D(15,13,16,2)          -0.1492         calculate D2E/DX2 analytically  !
 ! D75   D(15,13,16,17)        179.2788         calculate D2E/DX2 analytically  !
 ! D76   D(1,15,19,21)          -5.0108         calculate D2E/DX2 analytically  !
 ! D77   D(1,15,19,25)         179.7451         calculate D2E/DX2 analytically  !
 ! D78   D(13,15,19,21)        175.5895         calculate D2E/DX2 analytically  !
 ! D79   D(13,15,19,25)          0.3455         calculate D2E/DX2 analytically  !
 ! D80   D(3,18,20,38)          -2.5676         calculate D2E/DX2 analytically  !
 ! D81   D(3,18,20,42)        -178.9675         calculate D2E/DX2 analytically  !
 ! D82   D(9,18,20,38)         178.7327         calculate D2E/DX2 analytically  !
 ! D83   D(9,18,20,42)           2.3328         calculate D2E/DX2 analytically  !
 ! D84   D(15,19,21,22)        147.2386         calculate D2E/DX2 analytically  !
 ! D85   D(15,19,21,23)        -93.844          calculate D2E/DX2 analytically  !
 ! D86   D(15,19,21,24)         26.0982         calculate D2E/DX2 analytically  !
 ! D87   D(25,19,21,22)        -37.2195         calculate D2E/DX2 analytically  !
 ! D88   D(25,19,21,23)         81.6979         calculate D2E/DX2 analytically  !
 ! D89   D(25,19,21,24)       -158.36           calculate D2E/DX2 analytically  !
 ! D90   D(15,19,25,26)        -17.614          calculate D2E/DX2 analytically  !
 ! D91   D(15,19,25,27)       -135.7022         calculate D2E/DX2 analytically  !
 ! D92   D(15,19,25,28)        104.6502         calculate D2E/DX2 analytically  !
 ! D93   D(21,19,25,26)        166.8635         calculate D2E/DX2 analytically  !
 ! D94   D(21,19,25,27)         48.7753         calculate D2E/DX2 analytically  !
 ! D95   D(21,19,25,28)        -70.8723         calculate D2E/DX2 analytically  !
 ! D96   D(18,20,38,39)        119.4313         calculate D2E/DX2 analytically  !
 ! D97   D(18,20,38,40)       -122.6023         calculate D2E/DX2 analytically  !
 ! D98   D(18,20,38,41)         -1.8142         calculate D2E/DX2 analytically  !
 ! D99   D(42,20,38,39)        -64.0107         calculate D2E/DX2 analytically  !
 ! D100  D(42,20,38,40)         53.9556         calculate D2E/DX2 analytically  !
 ! D101  D(42,20,38,41)        174.7438         calculate D2E/DX2 analytically  !
 ! D102  D(18,20,42,43)       -151.7484         calculate D2E/DX2 analytically  !
 ! D103  D(18,20,42,44)        -33.9729         calculate D2E/DX2 analytically  !
 ! D104  D(18,20,42,45)         87.534          calculate D2E/DX2 analytically  !
 ! D105  D(38,20,42,43)         31.6031         calculate D2E/DX2 analytically  !
 ! D106  D(38,20,42,44)        149.3787         calculate D2E/DX2 analytically  !
 ! D107  D(38,20,42,45)        -89.1145         calculate D2E/DX2 analytically  !
 ! D108  D(19,25,28,29)       -170.5381         calculate D2E/DX2 analytically  !
 ! D109  D(19,25,28,30)         68.2655         calculate D2E/DX2 analytically  !
 ! D110  D(19,25,28,31)        -50.436          calculate D2E/DX2 analytically  !
 ! D111  D(26,25,28,29)        -47.0214         calculate D2E/DX2 analytically  !
 ! D112  D(26,25,28,30)       -168.2178         calculate D2E/DX2 analytically  !
 ! D113  D(26,25,28,31)         73.0807         calculate D2E/DX2 analytically  !
 ! D114  D(27,25,28,29)         68.9654         calculate D2E/DX2 analytically  !
 ! D115  D(27,25,28,30)        -52.231          calculate D2E/DX2 analytically  !
 ! D116  D(27,25,28,31)       -170.9325         calculate D2E/DX2 analytically  !
 ! D117  D(25,28,31,32)        107.2404         calculate D2E/DX2 analytically  !
 ! D118  D(25,28,31,33)        -70.4169         calculate D2E/DX2 analytically  !
 ! D119  D(29,28,31,32)       -132.2088         calculate D2E/DX2 analytically  !
 ! D120  D(29,28,31,33)         50.1339         calculate D2E/DX2 analytically  !
 ! D121  D(30,28,31,32)        -13.7447         calculate D2E/DX2 analytically  !
 ! D122  D(30,28,31,33)        168.598          calculate D2E/DX2 analytically  !
 ! D123  D(28,31,33,34)        175.7022         calculate D2E/DX2 analytically  !
 ! D124  D(32,31,33,34)         -2.0192         calculate D2E/DX2 analytically  !
 ! D125  D(31,33,34,35)         55.3674         calculate D2E/DX2 analytically  !
 ! D126  D(31,33,34,36)        175.2733         calculate D2E/DX2 analytically  !
 ! D127  D(31,33,34,37)        -65.4701         calculate D2E/DX2 analytically  !
 ! D128  D(20,42,45,46)         58.621          calculate D2E/DX2 analytically  !
 ! D129  D(20,42,45,47)        -61.0908         calculate D2E/DX2 analytically  !
 ! D130  D(20,42,45,48)        178.5384         calculate D2E/DX2 analytically  !
 ! D131  D(43,42,45,46)        -62.7742         calculate D2E/DX2 analytically  !
 ! D132  D(43,42,45,47)        177.514          calculate D2E/DX2 analytically  !
 ! D133  D(43,42,45,48)         57.1432         calculate D2E/DX2 analytically  !
 ! D134  D(44,42,45,46)       -178.9304         calculate D2E/DX2 analytically  !
 ! D135  D(44,42,45,47)         61.3578         calculate D2E/DX2 analytically  !
 ! D136  D(44,42,45,48)        -59.013          calculate D2E/DX2 analytically  !
 ! D137  D(42,45,48,49)        -56.7436         calculate D2E/DX2 analytically  !
 ! D138  D(42,45,48,50)        122.743          calculate D2E/DX2 analytically  !
 ! D139  D(46,45,48,49)         64.1966         calculate D2E/DX2 analytically  !
 ! D140  D(46,45,48,50)       -116.3167         calculate D2E/DX2 analytically  !
 ! D141  D(47,45,48,49)       -178.927          calculate D2E/DX2 analytically  !
 ! D142  D(47,45,48,50)          0.5596         calculate D2E/DX2 analytically  !
 ! D143  D(45,48,49,51)        179.6598         calculate D2E/DX2 analytically  !
 ! D144  D(50,48,49,51)          0.155          calculate D2E/DX2 analytically  !
 ! D145  D(48,49,51,52)         57.8411         calculate D2E/DX2 analytically  !
 ! D146  D(48,49,51,53)        177.8815         calculate D2E/DX2 analytically  !
 ! D147  D(48,49,51,54)        -62.2729         calculate D2E/DX2 analytically  !
 --------------------------------------------------------------------------------
 Trust Radius=3.00D-01 FncErr=1.00D-07 GrdErr=1.00D-06 EigMax=2.50D+02 EigMin=1.00D-04
 Number of steps in this run=    317 maximum allowed number of steps=    324.
 Search for a saddle point of order  1.
 GradGradGradGradGradGradGradGradGradGradGradGradGradGradGradGradGradGrad

 Stoichiometry    C22H28O4
 Framework group  C1[X(C22H28O4)]
 Deg. of freedom   156
 Full point group                 C1      NOp   1
 Largest Abelian subgroup         C1      NOp   1
 Largest concise Abelian subgroup C1      NOp   1
                         Standard orientation:                         
 ---------------------------------------------------------------------
 Center     Atomic      Atomic             Coordinates (Angstroms)
 Number     Number       Type             X           Y           Z
 ---------------------------------------------------------------------
      1          6           0        0.861795    0.769059   -1.379986
      2          6           0        1.049741    2.301486   -1.141129
      3          6           0       -0.097727    2.490849    0.383341
      4          6           0        0.520389    1.761918    1.563920
      5          6           0        0.367252    0.445070    1.363389
      6          1           0       -0.341586    3.547609    0.529238
      7          1           0        1.072050    2.243399    2.371695
      8          1           0        0.776016   -0.372164    1.957662
      9          6           0       -0.370837    0.269255    0.045957
     10          1           0       -0.869220   -0.694616   -0.098217
     11          1           0        0.376506    0.575218   -2.348307
     12          1           0        0.672891    2.902081   -1.982725
     13          6           0        3.187019    1.288557   -1.083768
     14          1           0        4.263594    1.165209   -0.961702
     15          6           0        2.260699    0.174280   -1.348122
     16          6           0        2.534680    2.457159   -0.966757
     17          1           0        3.013518    3.415603   -0.759246
     18          6           0       -1.227797    1.526757    0.058887
     19          6           0        2.568476   -1.123644   -1.538991
     20          6           0       -2.531543    1.697074   -0.165649
     21          6           0        1.505790   -2.177573   -1.704762
     22          1           0        1.842967   -2.976317   -2.383009
     23          1           0        1.275488   -2.647080   -0.732542
     24          1           0        0.570249   -1.762524   -2.103135
     25          6           0        3.988927   -1.630145   -1.495894
     26          1           0        4.708070   -0.809286   -1.607459
     27          1           0        4.157416   -2.322799   -2.336010
     28          6           0        4.287671   -2.388467   -0.184366
     29          1           0        5.363874   -2.596194   -0.106912
     30          1           0        3.732554   -3.333580   -0.136304
     31          6           0        3.857045   -1.548882    0.991234
     32          8           0        2.894869   -1.754685    1.690845
     33          8           0        4.667904   -0.487189    1.139274
     34          6           0        4.288566    0.426621    2.169169
     35          1           0        4.191135   -0.097321    3.129152
     36          1           0        5.087613    1.173774    2.213910
     37          1           0        3.331775    0.900815    1.910681
     38          6           0       -3.214336    3.035665   -0.079545
     39          1           0       -3.663292    3.305091   -1.049172
     40          1           0       -4.038158    3.007247    0.652111
     41          1           0       -2.526306    3.836376    0.217272
     42          6           0       -3.428865    0.512202   -0.448253
     43          1           0       -4.276958    0.826308   -1.074695
     44          1           0       -2.883833   -0.260231   -1.011536
     45          6           0       -3.975890   -0.107602    0.847291
     46          1           0       -4.540357    0.651523    1.411308
     47          1           0       -3.157240   -0.473594    1.479583
     48          6           0       -4.900711   -1.268692    0.580583
     49          8           0       -5.927119   -0.905780   -0.213654
     50          8           0       -4.763762   -2.391659    0.999859
     51          6           0       -6.843854   -1.953854   -0.518591
     52          1           0       -7.265092   -2.377380    0.402808
     53          1           0       -7.628844   -1.498280   -1.130286
     54          1           0       -6.338892   -2.756939   -1.072495
 ---------------------------------------------------------------------
 Rotational constants (GHZ):           0.3398425           0.1031042           0.0926708
 Standard basis: CC-pVDZ (5D, 7F)
 There are   530 symmetry adapted cartesian basis functions of A   symmetry.
 There are   504 symmetry adapted basis functions of A   symmetry.
   504 basis functions,  1054 primitive gaussians,   530 cartesian basis functions
    96 alpha electrons       96 beta electrons
       nuclear repulsion energy      2371.7614562480 Hartrees.
 NAtoms=   54 NActive=   54 NUniq=   54 SFac= 1.00D+00 NAtFMM=   60 NAOKFM=F Big=F
 Integral buffers will be    131072 words long.
 Raffenetti 2 integral format.
 Two-electron integral symmetry is turned on.
 Nuclear repulsion after empirical dispersion term =     2371.7569844144 Hartrees.
 One-electron integrals computed using PRISM.
 NBasis=   504 RedAO= T EigKep=  5.63D-04  NBF=   504
 NBsUse=   504 1.00D-06 EigRej= -1.00D+00 NBFU=   504
 ExpMin= 1.22D-01 ExpMax= 1.17D+04 ExpMxC= 4.01D+02 IAcc=3 IRadAn=         5 AccDes= 0.00D+00
 Harris functional with IExCor= 1009 and IRadAn=       5 diagonalized for initial guess.
 HarFok:  IExCor= 1009 AccDes= 0.00D+00 IRadAn=         5 IDoV= 1 UseB2=F ITyADJ=14
 ICtDFT=  3500011 ScaDFX=  1.000000  1.000000  1.000000  1.000000
 FoFCou: FMM=F IPFlag=           0 FMFlag=      100000 FMFlg1=           0
         NFxFlg=           0 DoJE=T BraDBF=F KetDBF=T FulRan=T
         wScrn=  0.000000 ICntrl=       500 IOpCl=  0 I1Cent=   200000004 NGrid=           0
         NMat0=    1 NMatS0=      1 NMatT0=    0 NMatD0=    1 NMtDS0=    0 NMtDT0=    0
 Petite list used in FoFCou.
 Requested convergence on RMS density matrix=1.00D-08 within 128 cycles.
 Requested convergence on MAX density matrix=1.00D-06.
 Requested convergence on             energy=1.00D-06.
 No special actions if energy rises.
 Integral accuracy reduced to 1.0D-05 until final iterations.
 Initial convergence to 1.0D-05 achieved.  Increase integral accuracy.
 SCF Done:  E(RM062X) =  -1155.60327203     A.U. after   14 cycles
            NFock= 14  Conv=0.65D-08     -V/T= 2.0072
 DoSCS=F DFT=T ScalE2(SS,OS)=  1.000000  1.000000
 Range of M.O.s used for correlation:     1   504
 NBasis=   504 NAE=    96 NBE=    96 NFC=     0 NFV=     0
 NROrb=    504 NOA=    96 NOB=    96 NVA=   408 NVB=   408

 **** Warning!!: The largest alpha MO coefficient is  0.10731007D+02

 Symmetrizing basis deriv contribution to polar:
 IMax=3 JMax=2 DiffMx= 0.00D+00
 G2DrvN: will do    55 centers at a time, making    1 passes.
 Calling FoFCou, ICntrl=  3107 FMM=F I1Cent=   0 AccDes= 0.00D+00.
 End of G2Drv F.D. properties file   721 does not exist.
 End of G2Drv F.D. properties file   722 does not exist.
 End of G2Drv F.D. properties file   788 does not exist.
          IDoAtm=11111111111111111111111111111111111111111111111111
          IDoAtm=1111
          Differentiating once with respect to electric field.
                with respect to dipole field.
          Differentiating once with respect to nuclear coordinates.
 CalDSu exits because no D1Ps are significant.
          There are   165 degrees of freedom in the 1st order CPHF.  IDoFFX=6 NUNeed=     3.
    162 vectors produced by pass  0 Test12= 3.92D-14 1.00D-09 XBig12= 1.77D+02 6.97D+00.
 AX will form   162 AO Fock derivatives at one time.
    162 vectors produced by pass  1 Test12= 3.92D-14 1.00D-09 XBig12= 3.65D+01 1.23D+00.
    162 vectors produced by pass  2 Test12= 3.92D-14 1.00D-09 XBig12= 7.67D-01 1.23D-01.
    162 vectors produced by pass  3 Test12= 3.92D-14 1.00D-09 XBig12= 7.37D-03 6.98D-03.
    162 vectors produced by pass  4 Test12= 3.92D-14 1.00D-09 XBig12= 4.05D-05 3.53D-04.
    162 vectors produced by pass  5 Test12= 3.92D-14 1.00D-09 XBig12= 1.39D-07 2.04D-05.
     93 vectors produced by pass  6 Test12= 3.92D-14 1.00D-09 XBig12= 3.69D-10 1.09D-06.
      3 vectors produced by pass  7 Test12= 3.92D-14 1.00D-09 XBig12= 9.20D-13 5.39D-08.
      3 vectors produced by pass  8 Test12= 3.92D-14 1.00D-09 XBig12= 2.57D-15 3.10D-09.
      2 vectors produced by pass  9 Test12= 3.92D-14 1.00D-09 XBig12= 7.22D-16 1.60D-09.
 InvSVY:  IOpt=1 It=  1 EMax= 2.84D-14
 Solved reduced A of dimension  1073 with   165 vectors.
 Isotropic polarizability for W=    0.000000      254.27 Bohr**3.
 End of Minotr F.D. properties file   721 does not exist.
 End of Minotr F.D. properties file   722 does not exist.
 End of Minotr F.D. properties file   788 does not exist.

 **********************************************************************

            Population analysis using the SCF Density.

 **********************************************************************

 Orbital symmetries:
       Occupied  (A) (A) (A) (A) (A) (A) (A) (A) (A) (A) (A) (A)
                 (A) (A) (A) (A) (A) (A) (A) (A) (A) (A) (A) (A)
                 (A) (A) (A) (A) (A) (A) (A) (A) (A) (A) (A) (A)
                 (A) (A) (A) (A) (A) (A) (A) (A) (A) (A) (A) (A)
                 (A) (A) (A) (A) (A) (A) (A) (A) (A) (A) (A) (A)
                 (A) (A) (A) (A) (A) (A) (A) (A) (A) (A) (A) (A)
                 (A) (A) (A) (A) (A) (A) (A) (A) (A) (A) (A) (A)
                 (A) (A) (A) (A) (A) (A) (A) (A) (A) (A) (A) (A)
       Virtual   (A) (A) (A) (A) (A) (A) (A) (A) (A) (A) (A) (A)
                 (A) (A) (A) (A) (A) (A) (A) (A) (A) (A) (A) (A)
                 (A) (A) (A) (A) (A) (A) (A) (A) (A) (A) (A) (A)
                 (A) (A) (A) (A) (A) (A) (A) (A) (A) (A) (A) (A)
                 (A) (A) (A) (A) (A) (A) (A) (A) (A) (A) (A) (A)
                 (A) (A) (A) (A) (A) (A) (A) (A) (A) (A) (A) (A)
                 (A) (A) (A) (A) (A) (A) (A) (A) (A) (A) (A) (A)
                 (A) (A) (A) (A) (A) (A) (A) (A) (A) (A) (A) (A)
                 (A) (A) (A) (A) (A) (A) (A) (A) (A) (A) (A) (A)
                 (A) (A) (A) (A) (A) (A) (A) (A) (A) (A) (A) (A)
                 (A) (A) (A) (A) (A) (A) (A) (A) (A) (A) (A) (A)
                 (A) (A) (A) (A) (A) (A) (A) (A) (A) (A) (A) (A)
                 (A) (A) (A) (A) (A) (A) (A) (A) (A) (A) (A) (A)
                 (A) (A) (A) (A) (A) (A) (A) (A) (A) (A) (A) (A)
                 (A) (A) (A) (A) (A) (A) (A) (A) (A) (A) (A) (A)
                 (A) (A) (A) (A) (A) (A) (A) (A) (A) (A) (A) (A)
                 (A) (A) (A) (A) (A) (A) (A) (A) (A) (A) (A) (A)
                 (A) (A) (A) (A) (A) (A) (A) (A) (A) (A) (A) (A)
                 (A) (A) (A) (A) (A) (A) (A) (A) (A) (A) (A) (A)
                 (A) (A) (A) (A) (A) (A) (A) (A) (A) (A) (A) (A)
                 (A) (A) (A) (A) (A) (A) (A) (A) (A) (A) (A) (A)
                 (A) (A) (A) (A) (A) (A) (A) (A) (A) (A) (A) (A)
                 (A) (A) (A) (A) (A) (A) (A) (A) (A) (A) (A) (A)
                 (A) (A) (A) (A) (A) (A) (A) (A) (A) (A) (A) (A)
                 (A) (A) (A) (A) (A) (A) (A) (A) (A) (A) (A) (A)
                 (A) (A) (A) (A) (A) (A) (A) (A) (A) (A) (A) (A)
                 (A) (A) (A) (A) (A) (A) (A) (A) (A) (A) (A) (A)
                 (A) (A) (A) (A) (A) (A) (A) (A) (A) (A) (A) (A)
                 (A) (A) (A) (A) (A) (A) (A) (A) (A) (A) (A) (A)
                 (A) (A) (A) (A) (A) (A) (A) (A) (A) (A) (A) (A)
                 (A) (A) (A) (A) (A) (A) (A) (A) (A) (A) (A) (A)
                 (A) (A) (A) (A) (A) (A) (A) (A) (A) (A) (A) (A)
                 (A) (A) (A) (A) (A) (A) (A) (A) (A) (A) (A) (A)
                 (A) (A) (A) (A) (A) (A) (A) (A) (A) (A) (A) (A)
 The electronic state is 1-A.
 Alpha  occ. eigenvalues --  -19.67674 -19.67548 -19.62198 -19.61909 -10.67296
 Alpha  occ. eigenvalues --  -10.67068 -10.59957 -10.59605 -10.56867 -10.56823
 Alpha  occ. eigenvalues --  -10.56727 -10.56563 -10.56003 -10.55723 -10.55690
 Alpha  occ. eigenvalues --  -10.55348 -10.55176 -10.54994 -10.54897 -10.54882
 Alpha  occ. eigenvalues --  -10.54704 -10.54651 -10.54533 -10.54462 -10.54300
 Alpha  occ. eigenvalues --  -10.54043  -1.22919  -1.22867  -1.13333  -1.13166
 Alpha  occ. eigenvalues --   -0.96864  -0.94427  -0.91389  -0.90662  -0.86057
 Alpha  occ. eigenvalues --   -0.85792  -0.80755  -0.80515  -0.79543  -0.78389
 Alpha  occ. eigenvalues --   -0.77404  -0.76375  -0.73641  -0.73474  -0.67772
 Alpha  occ. eigenvalues --   -0.66624  -0.64295  -0.63953  -0.61354  -0.59096
 Alpha  occ. eigenvalues --   -0.58628  -0.58311  -0.58078  -0.56952  -0.56421
 Alpha  occ. eigenvalues --   -0.56312  -0.55806  -0.55385  -0.54592  -0.54399
 Alpha  occ. eigenvalues --   -0.50772  -0.50584  -0.50022  -0.49044  -0.48778
 Alpha  occ. eigenvalues --   -0.48449  -0.48114  -0.47333  -0.46533  -0.46458
 Alpha  occ. eigenvalues --   -0.45884  -0.45250  -0.44691  -0.43661  -0.43135
 Alpha  occ. eigenvalues --   -0.42915  -0.42562  -0.42110  -0.41939  -0.41807
 Alpha  occ. eigenvalues --   -0.41577  -0.40629  -0.40182  -0.39356  -0.39035
 Alpha  occ. eigenvalues --   -0.37531  -0.36544  -0.36478  -0.36309  -0.36138
 Alpha  occ. eigenvalues --   -0.34429  -0.33873  -0.33604  -0.28178  -0.27617
 Alpha  occ. eigenvalues --   -0.24898
 Alpha virt. eigenvalues --    0.00777   0.03067   0.04699   0.06120   0.06349
 Alpha virt. eigenvalues --    0.08500   0.09509   0.10743   0.11201   0.12011
 Alpha virt. eigenvalues --    0.12133   0.12549   0.13059   0.13431   0.14052
 Alpha virt. eigenvalues --    0.14809   0.15158   0.15398   0.15816   0.16085
 Alpha virt. eigenvalues --    0.16836   0.17024   0.17378   0.17606   0.18006
 Alpha virt. eigenvalues --    0.18057   0.18398   0.19273   0.19409   0.19584
 Alpha virt. eigenvalues --    0.20279   0.20388   0.21281   0.22025   0.22591
 Alpha virt. eigenvalues --    0.23476   0.23729   0.24574   0.24931   0.25149
 Alpha virt. eigenvalues --    0.25951   0.26269   0.26969   0.27478   0.27739
 Alpha virt. eigenvalues --    0.28820   0.29520   0.29613   0.30295   0.32674
 Alpha virt. eigenvalues --    0.33961   0.34803   0.35313   0.36719   0.37693
 Alpha virt. eigenvalues --    0.38282   0.38446   0.39567   0.41293   0.42335
 Alpha virt. eigenvalues --    0.43543   0.44633   0.46093   0.46604   0.46994
 Alpha virt. eigenvalues --    0.48000   0.48311   0.48548   0.49289   0.49602
 Alpha virt. eigenvalues --    0.50196   0.51568   0.51873   0.52203   0.52248
 Alpha virt. eigenvalues --    0.52987   0.53941   0.54346   0.54874   0.55141
 Alpha virt. eigenvalues --    0.55241   0.56112   0.56543   0.57131   0.58071
 Alpha virt. eigenvalues --    0.58380   0.59210   0.59430   0.60148   0.61129
 Alpha virt. eigenvalues --    0.61473   0.61986   0.62276   0.62632   0.63308
 Alpha virt. eigenvalues --    0.63963   0.65057   0.65386   0.65948   0.66165
 Alpha virt. eigenvalues --    0.66778   0.67182   0.67644   0.67802   0.68167
 Alpha virt. eigenvalues --    0.68341   0.68712   0.69049   0.69147   0.69509
 Alpha virt. eigenvalues --    0.69936   0.70195   0.70545   0.71332   0.71532
 Alpha virt. eigenvalues --    0.71817   0.72133   0.72181   0.72382   0.72591
 Alpha virt. eigenvalues --    0.72992   0.73620   0.74099   0.74399   0.74545
 Alpha virt. eigenvalues --    0.75169   0.75349   0.75813   0.76537   0.76628
 Alpha virt. eigenvalues --    0.77408   0.77667   0.78067   0.78504   0.79314
 Alpha virt. eigenvalues --    0.79941   0.80205   0.80668   0.81376   0.82570
 Alpha virt. eigenvalues --    0.83124   0.84068   0.84301   0.85076   0.85843
 Alpha virt. eigenvalues --    0.87400   0.87555   0.88825   0.89097   0.89768
 Alpha virt. eigenvalues --    0.90748   0.91959   0.94056   0.94909   0.95852
 Alpha virt. eigenvalues --    0.96687   0.97606   0.97895   0.99722   1.00711
 Alpha virt. eigenvalues --    1.01804   1.02462   1.03297   1.03693   1.04661
 Alpha virt. eigenvalues --    1.06152   1.06799   1.08439   1.09091   1.10148
 Alpha virt. eigenvalues --    1.10803   1.11315   1.12427   1.14189   1.14436
 Alpha virt. eigenvalues --    1.14742   1.15649   1.16516   1.16813   1.17803
 Alpha virt. eigenvalues --    1.18501   1.18884   1.20227   1.20561   1.22211
 Alpha virt. eigenvalues --    1.22450   1.23178   1.23914   1.24609   1.24865
 Alpha virt. eigenvalues --    1.25409   1.26501   1.27658   1.28137   1.28717
 Alpha virt. eigenvalues --    1.29801   1.29953   1.31586   1.32704   1.33835
 Alpha virt. eigenvalues --    1.35228   1.35693   1.35851   1.38306   1.38456
 Alpha virt. eigenvalues --    1.39479   1.40513   1.41599   1.42300   1.43462
 Alpha virt. eigenvalues --    1.43804   1.44343   1.45062   1.45173   1.45957
 Alpha virt. eigenvalues --    1.46227   1.47192   1.48730   1.49127   1.49680
 Alpha virt. eigenvalues --    1.49880   1.50783   1.51688   1.52814   1.54927
 Alpha virt. eigenvalues --    1.55005   1.55684   1.56288   1.57259   1.57836
 Alpha virt. eigenvalues --    1.57889   1.58673   1.59865   1.60781   1.61492
 Alpha virt. eigenvalues --    1.62276   1.63208   1.63536   1.63751   1.64455
 Alpha virt. eigenvalues --    1.65073   1.65738   1.66170   1.66419   1.67341
 Alpha virt. eigenvalues --    1.67709   1.67823   1.68441   1.68947   1.69502
 Alpha virt. eigenvalues --    1.69922   1.70228   1.70706   1.71284   1.72234
 Alpha virt. eigenvalues --    1.72725   1.72981   1.73270   1.73609   1.73849
 Alpha virt. eigenvalues --    1.74723   1.75247   1.75425   1.75754   1.76268
 Alpha virt. eigenvalues --    1.76415   1.76757   1.77232   1.77530   1.78119
 Alpha virt. eigenvalues --    1.78525   1.79088   1.79550   1.79842   1.80295
 Alpha virt. eigenvalues --    1.80799   1.81632   1.82303   1.82562   1.83294
 Alpha virt. eigenvalues --    1.83698   1.84461   1.85511   1.86649   1.87073
 Alpha virt. eigenvalues --    1.87896   1.88091   1.88526   1.89058   1.89468
 Alpha virt. eigenvalues --    1.89790   1.91220   1.91505   1.91860   1.93245
 Alpha virt. eigenvalues --    1.93605   1.94881   1.95395   1.97096   1.97961
 Alpha virt. eigenvalues --    1.98436   1.99418   1.99594   2.00836   2.01827
 Alpha virt. eigenvalues --    2.01972   2.03405   2.03762   2.05337   2.05830
 Alpha virt. eigenvalues --    2.06245   2.06808   2.07732   2.07948   2.09972
 Alpha virt. eigenvalues --    2.10152   2.10571   2.10801   2.11424   2.12173
 Alpha virt. eigenvalues --    2.12339   2.12931   2.13055   2.14279   2.15026
 Alpha virt. eigenvalues --    2.15492   2.16744   2.17208   2.17913   2.19482
 Alpha virt. eigenvalues --    2.20304   2.20794   2.21760   2.23950   2.25251
 Alpha virt. eigenvalues --    2.25627   2.26389   2.28432   2.29209   2.30512
 Alpha virt. eigenvalues --    2.31652   2.31953   2.32952   2.33854   2.34592
 Alpha virt. eigenvalues --    2.34843   2.34905   2.36780   2.38688   2.40169
 Alpha virt. eigenvalues --    2.41569   2.42826   2.43426   2.44445   2.45129
 Alpha virt. eigenvalues --    2.45408   2.45858   2.46246   2.46999   2.47357
 Alpha virt. eigenvalues --    2.48264   2.48636   2.48969   2.50868   2.52240
 Alpha virt. eigenvalues --    2.52671   2.53017   2.53774   2.54192   2.55454
 Alpha virt. eigenvalues --    2.55956   2.56821   2.58450   2.58916   2.60330
 Alpha virt. eigenvalues --    2.61883   2.63313   2.64303   2.65260   2.68400
 Alpha virt. eigenvalues --    2.71024   2.71672   2.72223   2.78035   2.78624
 Alpha virt. eigenvalues --    2.79659   2.79769   2.82268   2.83195   2.87455
 Alpha virt. eigenvalues --    2.96141   2.96341   2.99649   3.00161   3.02806
 Alpha virt. eigenvalues --    3.03187   3.13572   3.21728   3.22777   3.24174
 Alpha virt. eigenvalues --    3.24266   3.25829   3.41358   3.42090   3.52491
 Alpha virt. eigenvalues --    3.53980   3.58524   3.60357
          Condensed to atoms (all electrons):
 Mulliken charges:
               1
     1  C   -0.073812
     2  C   -0.029665
     3  C   -0.067022
     4  C    0.025859
     5  C    0.042184
     6  H    0.000420
     7  H    0.003945
     8  H    0.024348
     9  C   -0.068304
    10  H    0.002429
    11  H    0.042076
    12  H    0.038878
    13  C   -0.005957
    14  H    0.001800
    15  C    0.073600
    16  C    0.014148
    17  H   -0.002358
    18  C    0.122819
    19  C   -0.293995
    20  C   -0.319701
    21  C    0.013458
    22  H    0.038000
    23  H    0.069481
    24  H    0.049742
    25  C    0.010486
    26  H    0.044250
    27  H    0.040629
    28  C   -0.003440
    29  H    0.057901
    30  H    0.052932
    31  C    0.199340
    32  O   -0.263759
    33  O   -0.291802
    34  C    0.078144
    35  H    0.056920
    36  H    0.050924
    37  H    0.047375
    38  C    0.021494
    39  H    0.054212
    40  H    0.045106
    41  H    0.038707
    42  C   -0.011257
    43  H    0.037567
    44  H    0.042032
    45  C    0.007130
    46  H    0.060636
    47  H    0.056728
    48  C    0.181159
    49  O   -0.297508
    50  O   -0.262602
    51  C    0.084643
    52  H    0.054112
    53  H    0.052617
    54  H    0.052951
 Sum of Mulliken charges =  -0.00000
 Mulliken charges with hydrogens summed into heavy atoms:
               1
     1  C   -0.031736
     2  C    0.009213
     3  C   -0.066602
     4  C    0.029804
     5  C    0.066532
     9  C   -0.065875
    13  C   -0.004157
    15  C    0.073600
    16  C    0.011790
    18  C    0.122819
    19  C   -0.293995
    20  C   -0.319701
    21  C    0.170681
    25  C    0.095364
    28  C    0.107393
    31  C    0.199340
    32  O   -0.263759
    33  O   -0.291802
    34  C    0.233362
    38  C    0.159518
    42  C    0.068342
    45  C    0.124495
    48  C    0.181159
    49  O   -0.297508
    50  O   -0.262602
    51  C    0.244324
 APT charges:
               1
     1  C    0.030746
     2  C    0.035854
     3  C    0.188109
     4  C   -0.136511
     5  C   -0.119926
     6  H   -0.050546
     7  H    0.042493
     8  H    0.093137
     9  C    0.143682
    10  H   -0.036873
    11  H   -0.037340
    12  H   -0.037308
    13  C   -0.092357
    14  H    0.056952
    15  C   -0.047299
    16  C   -0.045915
    17  H    0.021032
    18  C   -0.081206
    19  C    0.046425
    20  C    0.105501
    21  C   -0.001478
    22  H   -0.018439
    23  H    0.011392
    24  H    0.002855
    25  C    0.122203
    26  H   -0.005451
    27  H   -0.049445
    28  C   -0.045074
    29  H   -0.005470
    30  H    0.009312
    31  C    0.961346
    32  O   -0.660171
    33  O   -0.753790
    34  C    0.402302
    35  H   -0.005868
    36  H   -0.000242
    37  H    0.000239
    38  C    0.008751
    39  H   -0.023324
    40  H   -0.022650
    41  H    0.009469
    42  C    0.086142
    43  H   -0.008784
    44  H   -0.022867
    45  C   -0.079845
    46  H    0.008439
    47  H    0.009283
    48  C    1.168577
    49  O   -0.905727
    50  O   -0.720684
    51  C    0.492960
    52  H   -0.018412
    53  H   -0.003729
    54  H   -0.020471
 Sum of APT charges =   0.00000
 APT charges with hydrogens summed into heavy atoms:
               1
     1  C   -0.006594
     2  C   -0.001453
     3  C    0.137563
     4  C   -0.094019
     5  C   -0.026789
     9  C    0.106810
    13  C   -0.035405
    15  C   -0.047299
    16  C   -0.024884
    18  C   -0.081206
    19  C    0.046425
    20  C    0.105501
    21  C   -0.005671
    25  C    0.067306
    28  C   -0.041232
    31  C    0.961346
    32  O   -0.660171
    33  O   -0.753790
    34  C    0.396432
    38  C   -0.027754
    42  C    0.054491
    45  C   -0.062123
    48  C    1.168577
    49  O   -0.905727
    50  O   -0.720684
    51  C    0.450348
 Electronic spatial extent (au):  <R**2>=          12003.5234
 Charge=             -0.0000 electrons
 Dipole moment (field-independent basis, Debye):
    X=              0.5489    Y=              1.8757    Z=             -1.5929  Tot=              2.5213
 Quadrupole moment (field-independent basis, Debye-Ang):
   XX=           -133.1456   YY=           -152.9614   ZZ=           -155.4362
   XY=             -3.7141   XZ=              7.1785   YZ=             10.2348
 Traceless Quadrupole moment (field-independent basis, Debye-Ang):
   XX=             14.0355   YY=             -5.7803   ZZ=             -8.2551
   XY=             -3.7141   XZ=              7.1785   YZ=             10.2348
 Octapole moment (field-independent basis, Debye-Ang**2):
  XXX=            -87.5241  YYY=             -4.2264  ZZZ=             25.0472  XYY=             23.1891
  XXY=            -24.6952  XXZ=            -15.8313  XZZ=             -0.1471  YZZ=             -1.1204
  YYZ=            -14.7519  XYZ=             -2.7295
 Hexadecapole moment (field-independent basis, Debye-Ang**3):
 XXXX=         -10073.5164 YYYY=          -2898.2911 ZZZZ=          -1430.6345 XXXY=            221.5265
 XXXZ=            270.0847 YYYX=            -32.3030 YYYZ=             39.3817 ZZZX=            109.4981
 ZZZY=              8.9687 XXYY=          -2288.7160 XXZZ=          -2082.1192 YYZZ=           -737.0342
 XXYZ=            166.8178 YYXZ=             59.9328 ZZXY=             17.7762
 N-N= 2.371756984414D+03 E-N=-7.433287117368D+03  KE= 1.147348985130D+03
  Exact polarizability: 306.632 -16.996 262.435  -2.491  13.098 193.756
 Approx polarizability: 325.966 -14.266 349.365  -7.893   8.766 263.246
 Calling FoFJK, ICntrl=    100127 FMM=F ISym2X=0 I1Cent= 0 IOpClX= 0 NMat=1 NMatS=1 NMatT=0.
 ***** Axes restored to original set *****
 -------------------------------------------------------------------
 Center     Atomic                   Forces (Hartrees/Bohr)
 Number     Number              X              Y              Z
 -------------------------------------------------------------------
      1        6          -0.019020015    0.007364921    0.029715514
      2        6          -0.027146442   -0.031042197    0.032146684
      3        6           0.016573657    0.009172086   -0.011506525
      4        6           0.003995133    0.016681671   -0.017633734
      5        6          -0.000042261   -0.009665050   -0.022526841
      6        1           0.001330673    0.000701674   -0.000439187
      7        1          -0.000019115    0.000309488   -0.000362742
      8        1           0.000620356   -0.000063810   -0.000557145
      9        6           0.019567716    0.008114632   -0.014092276
     10        1           0.003887740   -0.001280719   -0.005495082
     11        1          -0.007004869   -0.004200711    0.006429076
     12        1          -0.007798539    0.003527667    0.008927503
     13        6          -0.000572798   -0.003039431    0.003047927
     14        1          -0.000320932    0.000352641   -0.000849309
     15        6          -0.008904598    0.002044467    0.006072572
     16        6          -0.010207776    0.002776557    0.009137844
     17        1          -0.000100824   -0.000088876   -0.000781783
     18        6           0.037880911   -0.001947375   -0.021502644
     19        6           0.000419009   -0.001936551   -0.001345876
     20        6          -0.002844018    0.000403489   -0.000594670
     21        6          -0.000317070    0.000685137   -0.000143098
     22        1           0.000305012   -0.000055061    0.000067027
     23        1           0.000072128    0.000304249    0.000251677
     24        1           0.000064216    0.000459373    0.000821150
     25        6           0.000409228    0.000014843    0.000124316
     26        1          -0.000234714    0.000413518    0.000597382
     27        1           0.000315856    0.000147243   -0.000041949
     28        6          -0.001303499   -0.000759056    0.000110000
     29        1          -0.000009516   -0.000376863   -0.000315980
     30        1          -0.000246698    0.000185081    0.000159930
     31        6          -0.002173917   -0.000138787    0.001099487
     32        8           0.002285085    0.000289903   -0.001241333
     33        8           0.000767410    0.000516013    0.000446440
     34        6          -0.000338178   -0.000013726   -0.000431365
     35        1          -0.000088310   -0.000026775   -0.000020269
     36        1          -0.000017364   -0.000002945    0.000042401
     37        1          -0.000621490    0.000048253    0.000014884
     38        6           0.000400870   -0.000010964    0.000189955
     39        1           0.000160884   -0.000433040   -0.000065035
     40        1          -0.000148532   -0.000167247    0.000127818
     41        1           0.000053064   -0.000105886   -0.000071973
     42        6           0.000155311    0.000203813   -0.000288510
     43        1           0.000067901    0.000366284    0.000210669
     44        1           0.000273325    0.000269564    0.000183657
     45        6          -0.000402748   -0.000191061   -0.000115881
     46        1           0.000146844    0.000214186    0.000189751
     47        1          -0.000169828    0.000030792    0.000098056
     48        6           0.001278829   -0.004169939    0.001559746
     49        8          -0.000346267    0.000537907    0.000038933
     50        8          -0.000672885    0.003713800   -0.001360044
     51        6           0.000003577   -0.000166105   -0.000099351
     52        1          -0.000035450    0.000067683    0.000004198
     53        1           0.000050947   -0.000024819   -0.000024678
     54        1           0.000022971   -0.000009941    0.000092686
 -------------------------------------------------------------------
 Cartesian Forces:  Max     0.037880911 RMS     0.007453477
 FormGI is forming the generalized inverse of G from B-inverse, IUseBI=4.

 GradGradGradGradGradGradGradGradGradGradGradGradGradGradGradGradGradGrad
 Berny optimization.
 Internal  Forces:  Max     0.063692451 RMS     0.006054368
 Search for a saddle point.
 Step number   1 out of a maximum of  317
 All quantities printed in internal units (Hartrees-Bohrs-Radians)
 Swapping is turned off.
 Second derivative matrix not updated -- analytic derivatives used.
 ITU=  0
     Eigenvalues ---   -0.01255   0.00037   0.00106   0.00201   0.00222
     Eigenvalues ---    0.00256   0.00263   0.00282   0.00326   0.00373
     Eigenvalues ---    0.00422   0.00539   0.00654   0.00764   0.01020
     Eigenvalues ---    0.01156   0.01248   0.01358   0.01477   0.01620
     Eigenvalues ---    0.01812   0.02209   0.02228   0.02276   0.02514
     Eigenvalues ---    0.02654   0.02697   0.02911   0.03074   0.03365
     Eigenvalues ---    0.03423   0.03485   0.03629   0.03712   0.03757
     Eigenvalues ---    0.03856   0.04059   0.04088   0.04223   0.04259
     Eigenvalues ---    0.04327   0.04412   0.04558   0.04634   0.05172
     Eigenvalues ---    0.05355   0.05393   0.05642   0.05659   0.05895
     Eigenvalues ---    0.06139   0.06423   0.06921   0.07112   0.07320
     Eigenvalues ---    0.07614   0.07664   0.08069   0.08082   0.08213
     Eigenvalues ---    0.08297   0.08318   0.09420   0.09830   0.10004
     Eigenvalues ---    0.10192   0.10420   0.10761   0.11060   0.11714
     Eigenvalues ---    0.11814   0.12621   0.12910   0.12949   0.13200
     Eigenvalues ---    0.13204   0.13398   0.13800   0.14260   0.14398
     Eigenvalues ---    0.15109   0.15236   0.16551   0.16655   0.16873
     Eigenvalues ---    0.18694   0.18758   0.18785   0.18863   0.19632
     Eigenvalues ---    0.19876   0.19939   0.20048   0.20781   0.20899
     Eigenvalues ---    0.21018   0.21558   0.21737   0.22025   0.24348
     Eigenvalues ---    0.24827   0.25294   0.25798   0.26397   0.27471
     Eigenvalues ---    0.27530   0.27737   0.28025   0.29526   0.30238
     Eigenvalues ---    0.31177   0.32554   0.32907   0.33054   0.33308
     Eigenvalues ---    0.33626   0.33691   0.33934   0.33957   0.34012
     Eigenvalues ---    0.34151   0.34231   0.34501   0.34525   0.34611
     Eigenvalues ---    0.34657   0.34692   0.34760   0.34933   0.34958
     Eigenvalues ---    0.34984   0.35036   0.35166   0.35280   0.35521
     Eigenvalues ---    0.35572   0.35638   0.35769   0.35962   0.36564
     Eigenvalues ---    0.36744   0.36872   0.36956   0.37274   0.37864
     Eigenvalues ---    0.39420   0.39688   0.48895   0.49490   0.50570
     Eigenvalues ---    0.53464   0.56233   0.64967   0.66061   0.91994
     Eigenvalues ---    0.92713
 Eigenvectors required to have negative eigenvalues:
                          R2        R5        D64       D48       R1
   1                    0.67154   0.55332  -0.11825   0.11404  -0.11396
                          D23       D6        D8        D38       D65
   1                    0.10036  -0.09903   0.09449  -0.09215  -0.09090
 RFO step:  Lambda0=4.992448523D-02 Lambda=-5.40967915D-02.
 Linear search not attempted -- option 19 set.
 Maximum step size (   0.300) exceeded in Quadratic search.
    -- Step size scaled by   0.402
 Iteration  1 RMS(Cart)=  0.04002491 RMS(Int)=  0.00126622
 Iteration  2 RMS(Cart)=  0.00189761 RMS(Int)=  0.00054098
 Iteration  3 RMS(Cart)=  0.00000340 RMS(Int)=  0.00054098
 Iteration  4 RMS(Cart)=  0.00000000 RMS(Int)=  0.00054098
 Variable       Old X    -DE/DX   Delta X   Delta X   Delta X     New X
                                 (Linear)    (Quad)   (Total)
    R1        2.95228  -0.01354   0.00000  -0.07558  -0.07643   2.87585
    R2        3.68497  -0.06369   0.00000   0.16163   0.16132   3.84629
    R3        2.07932  -0.00183   0.00000  -0.00477  -0.00477   2.07455
    R4        2.87320  -0.01023   0.00000  -0.02270  -0.02252   2.85068
    R5        3.62342  -0.06019   0.00000   0.10310   0.10301   3.72643
    R6        2.07957  -0.00223   0.00000  -0.00439  -0.00439   2.07518
    R7        2.84068  -0.00787   0.00000  -0.01772  -0.01778   2.82290
    R8        2.87038  -0.01777   0.00000  -0.05800  -0.05793   2.81245
    R9        2.06793   0.00032   0.00000  -0.00260  -0.00260   2.06533
   R10        2.87326  -0.00972   0.00000  -0.02448  -0.02413   2.84912
   R11        2.53375   0.01323   0.00000   0.01767   0.01819   2.55194
   R12        2.06028  -0.00014   0.00000  -0.00032  -0.00032   2.05997
   R13        2.05982  -0.00002   0.00000  -0.00013  -0.00013   2.05969
   R14        2.87295  -0.01557   0.00000  -0.05813  -0.05788   2.81508
   R15        2.06855   0.00008   0.00000  -0.00261  -0.00261   2.06595
   R16        2.87578  -0.00832   0.00000  -0.02785  -0.02737   2.84841
   R17        2.06069  -0.00045   0.00000  -0.00052  -0.00052   2.06017
   R18        2.78346  -0.00276   0.00000   0.00060   0.00049   2.78395
   R19        2.53876   0.00069   0.00000   0.00417   0.00393   2.54269
   R20        2.54641   0.00004   0.00000   0.00217   0.00217   2.54858
   R21        2.06228  -0.00027   0.00000  -0.00054  -0.00054   2.06174
   R22        2.52063   0.00202   0.00000   0.00528   0.00528   2.52590
   R23        2.84562  -0.00117   0.00000  -0.00196  -0.00196   2.84366
   R24        2.85097  -0.00127   0.00000  -0.00078  -0.00078   2.85019
   R25        2.84430  -0.00084   0.00000  -0.00162  -0.00162   2.84268
   R26        2.85903  -0.00097   0.00000  -0.00161  -0.00161   2.85743
   R27        2.08016   0.00009   0.00000  -0.00003  -0.00003   2.08013
   R28        2.08615   0.00008   0.00000   0.00067   0.00067   2.08682
   R29        2.07544  -0.00018   0.00000  -0.00072  -0.00072   2.07471
   R30        2.07304   0.00009   0.00000   0.00030   0.00030   2.07334
   R31        2.08209  -0.00001   0.00000   0.00011   0.00011   2.08220
   R32        2.91802  -0.00031   0.00000  -0.00003  -0.00003   2.91799
   R33        2.07643   0.00004   0.00000   0.00010   0.00010   2.07653
   R34        2.07328  -0.00003   0.00000  -0.00007  -0.00007   2.07321
   R35        2.84865   0.00036   0.00000  -0.00060  -0.00060   2.84805
   R36        2.28148  -0.00259   0.00000  -0.00063  -0.00063   2.28085
   R37        2.53998   0.00024   0.00000   0.00009   0.00009   2.54007
   R38        2.69882   0.00000   0.00000   0.00009   0.00009   2.69891
   R39        2.07489   0.00000   0.00000   0.00003   0.00003   2.07492
   R40        2.06898  -0.00001   0.00000  -0.00002  -0.00002   2.06896
   R41        2.07623   0.00056   0.00000   0.00017   0.00017   2.07640
   R42        2.08241  -0.00011   0.00000   0.00011   0.00011   2.08252
   R43        2.08283   0.00020   0.00000   0.00016   0.00016   2.08299
   R44        2.07235  -0.00006   0.00000  -0.00044  -0.00044   2.07192
   R45        2.07900  -0.00007   0.00000  -0.00009  -0.00009   2.07891
   R46        2.07956  -0.00015   0.00000  -0.00016  -0.00016   2.07940
   R47        2.90418   0.00036   0.00000   0.00059   0.00059   2.90476
   R48        2.08128   0.00017   0.00000   0.00014   0.00014   2.08142
   R49        2.07348  -0.00008   0.00000  -0.00021  -0.00021   2.07327
   R50        2.85002  -0.00018   0.00000   0.00009   0.00009   2.85010
   R51        2.54660   0.00034   0.00000   0.00076   0.00076   2.54736
   R52        2.27992  -0.00401   0.00000  -0.00190  -0.00190   2.27802
   R53        2.69367   0.00008   0.00000   0.00016   0.00016   2.69383
   R54        2.07508  -0.00001   0.00000   0.00000   0.00000   2.07508
   R55        2.06830  -0.00003   0.00000  -0.00004  -0.00004   2.06826
   R56        2.07590  -0.00003   0.00000  -0.00003  -0.00003   2.07587
    A1        1.78816   0.00179   0.00000  -0.00607  -0.00684   1.78133
    A2        1.93950  -0.00023   0.00000   0.03841   0.03717   1.97667
    A3        1.84401   0.00422   0.00000   0.01403   0.01381   1.85781
    A4        1.89608  -0.00192   0.00000  -0.04692  -0.04600   1.85008
    A5        2.05556  -0.00915   0.00000  -0.04195  -0.04146   2.01410
    A6        1.93405   0.00539   0.00000   0.04591   0.04336   1.97741
    A7        1.71776   0.00877   0.00000   0.02093   0.02085   1.73861
    A8        1.95758  -0.00162   0.00000   0.02995   0.02918   1.98677
    A9        1.81126   0.00044   0.00000   0.01240   0.01289   1.82415
   A10        1.92751  -0.00456   0.00000  -0.05527  -0.05504   1.87247
   A11        2.08140  -0.00953   0.00000  -0.04834  -0.04843   2.03297
   A12        1.95032   0.00709   0.00000   0.04791   0.04508   1.99540
   A13        1.90395  -0.01015   0.00000  -0.04122  -0.04035   1.86360
   A14        1.91212   0.00688   0.00000  -0.01738  -0.01719   1.89492
   A15        1.78493  -0.01169   0.00000  -0.05040  -0.04963   1.73530
   A16        2.03811   0.00236   0.00000   0.03230   0.03085   2.06897
   A17        1.73556   0.00537   0.00000   0.03639   0.03342   1.76898
   A18        2.06593   0.00412   0.00000   0.02924   0.02762   2.09355
   A19        1.88452  -0.00132   0.00000   0.00646   0.00599   1.89050
   A20        2.17710   0.00028   0.00000  -0.00000   0.00017   2.17727
   A21        2.21722   0.00114   0.00000  -0.00787  -0.00764   2.20958
   A22        2.22936  -0.00001   0.00000  -0.00924  -0.00907   2.22029
   A23        1.87405   0.00084   0.00000   0.01011   0.00981   1.88386
   A24        2.17464  -0.00077   0.00000  -0.00183  -0.00171   2.17292
   A25        1.87250  -0.00779   0.00000  -0.04405  -0.04327   1.82923
   A26        2.00114  -0.00007   0.00000  -0.02212  -0.02159   1.97955
   A27        1.72175  -0.00652   0.00000  -0.05631  -0.05545   1.66629
   A28        2.02306   0.00480   0.00000   0.03949   0.03755   2.06061
   A29        1.74210   0.00288   0.00000   0.03631   0.03301   1.77511
   A30        2.06275   0.00473   0.00000   0.03563   0.03332   2.09607
   A31        2.15963   0.00143   0.00000   0.00535   0.00545   2.16509
   A32        2.17490   0.00099   0.00000   0.00587   0.00598   2.18088
   A33        1.94798  -0.00239   0.00000  -0.01127  -0.01151   1.93646
   A34        1.86132  -0.00149   0.00000  -0.00673  -0.00660   1.85471
   A35        2.19442  -0.00080   0.00000   0.00397   0.00389   2.19831
   A36        2.22742   0.00230   0.00000   0.00284   0.00275   2.23017
   A37        1.96003  -0.00075   0.00000  -0.00846  -0.00869   1.95134
   A38        2.14891   0.00030   0.00000   0.00437   0.00445   2.15336
   A39        2.17420   0.00045   0.00000   0.00397   0.00402   2.17822
   A40        1.67824   0.00792   0.00000   0.03476   0.03379   1.71203
   A41        2.32050  -0.00482   0.00000  -0.01928  -0.01888   2.30162
   A42        2.28431  -0.00304   0.00000  -0.01516  -0.01477   2.26954
   A43        2.12769  -0.00152   0.00000  -0.00368  -0.00368   2.12401
   A44        2.13457  -0.00020   0.00000   0.00129   0.00129   2.13586
   A45        2.01819   0.00164   0.00000   0.00223   0.00223   2.02042
   A46        2.14996  -0.00032   0.00000   0.00105   0.00105   2.15101
   A47        2.10732   0.00073   0.00000   0.00124   0.00124   2.10856
   A48        2.02432  -0.00041   0.00000  -0.00216  -0.00216   2.02216
   A49        1.93855   0.00005   0.00000   0.00202   0.00202   1.94057
   A50        1.92617  -0.00053   0.00000  -0.00467  -0.00467   1.92150
   A51        1.95690  -0.00048   0.00000  -0.00002  -0.00003   1.95687
   A52        1.87332   0.00030   0.00000   0.00069   0.00070   1.87402
   A53        1.88772   0.00069   0.00000   0.00356   0.00356   1.89128
   A54        1.87807   0.00004   0.00000  -0.00151  -0.00152   1.87655
   A55        1.94239   0.00049   0.00000  -0.00153  -0.00153   1.94085
   A56        1.91055   0.00171   0.00000  -0.00150  -0.00150   1.90905
   A57        1.95120  -0.00370   0.00000   0.00342   0.00342   1.95462
   A58        1.86776  -0.00035   0.00000   0.00096   0.00096   1.86872
   A59        1.90395   0.00118   0.00000   0.00070   0.00070   1.90464
   A60        1.88527   0.00083   0.00000  -0.00219  -0.00218   1.88308
   A61        1.92005   0.00002   0.00000  -0.00184  -0.00184   1.91821
   A62        1.94160   0.00084   0.00000   0.00048   0.00048   1.94208
   A63        1.91091  -0.00183   0.00000   0.00208   0.00208   1.91298
   A64        1.90670  -0.00025   0.00000  -0.00008  -0.00008   1.90662
   A65        1.90722   0.00133   0.00000  -0.00067  -0.00067   1.90655
   A66        1.87663  -0.00008   0.00000   0.00006   0.00006   1.87669
   A67        2.19523  -0.00097   0.00000  -0.00127  -0.00127   2.19396
   A68        1.93210   0.00205   0.00000   0.00139   0.00139   1.93349
   A69        2.15509  -0.00110   0.00000  -0.00005  -0.00006   2.15503
   A70        2.00932  -0.00235   0.00000  -0.00077  -0.00077   2.00855
   A71        1.92702  -0.00011   0.00000  -0.00000  -0.00000   1.92702
   A72        1.84655   0.00015   0.00000   0.00014   0.00014   1.84669
   A73        1.91538   0.00000   0.00000  -0.00042  -0.00042   1.91496
   A74        1.93336   0.00002   0.00000   0.00001   0.00001   1.93337
   A75        1.91174  -0.00019   0.00000   0.00042   0.00042   1.91216
   A76        1.92905   0.00013   0.00000  -0.00017  -0.00017   1.92888
   A77        1.93042  -0.00064   0.00000  -0.00209  -0.00209   1.92833
   A78        1.93277  -0.00009   0.00000  -0.00083  -0.00083   1.93193
   A79        1.96084   0.00003   0.00000   0.00170   0.00170   1.96254
   A80        1.86073   0.00027   0.00000  -0.00041  -0.00041   1.86031
   A81        1.89151   0.00029   0.00000   0.00080   0.00080   1.89231
   A82        1.88399   0.00018   0.00000   0.00082   0.00082   1.88481
   A83        1.91768  -0.00016   0.00000  -0.00064  -0.00064   1.91704
   A84        1.93005  -0.00006   0.00000  -0.00027  -0.00027   1.92978
   A85        1.94926  -0.00027   0.00000  -0.00057  -0.00057   1.94869
   A86        1.86580   0.00015   0.00000   0.00106   0.00106   1.86686
   A87        1.89734   0.00009   0.00000  -0.00030  -0.00030   1.89703
   A88        1.90150   0.00027   0.00000   0.00081   0.00081   1.90231
   A89        1.91363  -0.00016   0.00000  -0.00021  -0.00021   1.91342
   A90        1.93343   0.00009   0.00000  -0.00014  -0.00014   1.93329
   A91        1.96025   0.00020   0.00000   0.00020   0.00020   1.96044
   A92        1.89356  -0.00008   0.00000   0.00002   0.00002   1.89358
   A93        1.88275   0.00006   0.00000  -0.00002  -0.00002   1.88273
   A94        1.87824  -0.00012   0.00000   0.00016   0.00016   1.87841
   A95        1.94330  -0.00038   0.00000  -0.00079  -0.00079   1.94251
   A96        2.19631   0.00039   0.00000   0.00058   0.00058   2.19689
   A97        2.14353  -0.00000   0.00000   0.00021   0.00021   2.14375
   A98        2.00195  -0.00030   0.00000  -0.00049  -0.00049   2.00145
   A99        1.92922  -0.00004   0.00000  -0.00011  -0.00011   1.92911
   A100       1.84915   0.00002   0.00000   0.00003   0.00003   1.84918
   A101       1.92812  -0.00002   0.00000   0.00003   0.00003   1.92815
   A102       1.93303   0.00001   0.00000  -0.00012  -0.00012   1.93291
   A103       1.89385   0.00001   0.00000   0.00006   0.00006   1.89391
   A104       1.93069   0.00003   0.00000   0.00011   0.00011   1.93080
    D1       -0.00257   0.00024   0.00000  -0.00371  -0.00362  -0.00619
    D2       -2.03059   0.00142   0.00000   0.03733   0.03741  -1.99318
    D3        2.14458  -0.00652   0.00000  -0.04376  -0.04359   2.10098
    D4        2.01959  -0.00112   0.00000  -0.04458  -0.04494   1.97466
    D5       -0.00843   0.00006   0.00000  -0.00354  -0.00391  -0.01234
    D6       -2.11645  -0.00788   0.00000  -0.08464  -0.08491  -2.20136
    D7       -2.16474   0.00783   0.00000   0.04042   0.04044  -2.12430
    D8        2.09043   0.00900   0.00000   0.08145   0.08147   2.17189
    D9       -0.01759   0.00107   0.00000   0.00036   0.00046  -0.01713
   D10       -1.16458  -0.00138   0.00000   0.00167   0.00131  -1.16327
   D11        2.84489  -0.00111   0.00000   0.00377   0.00346   2.84835
   D12        0.63616  -0.00239   0.00000   0.01051   0.00976   0.64592
   D13        3.06530  -0.00120   0.00000  -0.01905  -0.01831   3.04698
   D14        0.79158  -0.00092   0.00000  -0.01695  -0.01617   0.77542
   D15       -1.41715  -0.00221   0.00000  -0.01021  -0.00986  -1.42701
   D16        0.84919   0.00053   0.00000  -0.00593  -0.00610   0.84310
   D17       -1.42452   0.00080   0.00000  -0.00383  -0.00395  -1.42847
[...]
 001957,0.00000242,-0.00001555,0.00000962,-0.00000546,0.00000793,-0.000
 00650,0.00000270,0.00000372,-0.00006291,0.00001314,0.00004287,0.000056
 42,-0.00002647,-0.00002642,0.00003756,-0.00000519,-0.00000211,-0.00002
 363,0.00000695,-0.00000728,-0.00000202,-0.00000295,0.00000236,0.000005
 20,0.00000059,-0.00000249,-0.00000181,-0.00000449,-0.00000362,0.000028
 59,0.00004270,0.00009681,0.00000700,-0.00004095,-0.00001194,0.00004099
 ,-0.00007261,-0.00003261,0.00001890,0.00004765,-0.00000132,-0.00018929
 ,0.00026436,0.00005042,-0.00007092,-0.00047937,0.00067803,0.00015741,-
 0.00008145,-0.00006718,-0.00421342,0.00363298,0.00022564,0.00047170,0.
 00048622,0.00015157,-0.00047523,-0.00072223,0.00022947,-0.03185776,-0.
 02321215,-0.02053466,-0.02427024,-0.01478233,-0.08501517,0.00380237,-0
 .00731949,-0.00134565,0.00018199,-0.04133833,0.60359300,-0.00000457,-0
 .00001390,0.00000934,-0.00000849,0.00000957,0.00000359,0.00000789,0.00
 002473,0.00000244,-0.00001472,-0.00000332,-0.00000487,-0.00000631,-0.0
 0000914,0.00000779,-0.00000168,-0.00000306,0.00000051,-0.00000381,-0.0
 0000090,-0.00000167,-0.00000132,-0.00000312,-0.00000027,0.00003216,-0.
 00001332,-0.00001165,0.00000241,-0.00000760,0.00000566,0.00000422,0.00
 000203,-0.00000945,0.00000152,0.00000084,-0.00000498,-0.00001758,-0.00
 000288,-0.00000064,-0.00000010,-0.00000066,-0.00000143,-0.00000145,-0.
 00000564,-0.00000107,0.00000091,0.00001040,0.00000852,-0.00000162,-0.0
 0000180,-0.00000118,-0.00001328,-0.00004195,-0.00001558,0.00000139,-0.
 00000094,0.00000181,0.00000224,0.00010579,-0.00003111,0.00000242,-0.00
 000528,0.00000106,0.00000007,0.00000202,0.00000216,0.00000180,0.000001
 36,-0.00000125,-0.00000021,0.00000295,-0.00000142,0.00000461,-0.000002
 68,-0.00000077,-0.00000113,-0.00000070,-0.00000110,-0.00000145,0.00000
 262,0.00000085,-0.00000367,-0.00000142,0.00000137,-0.00000224,0.000000
 85,-0.00000176,0.00000173,-0.00000078,0.00000056,0.00000206,-0.0000032
 3,0.00000590,-0.00000329,0.00000679,-0.00000694,-0.00000315,0.00000298
 ,-0.00000495,0.00000474,-0.00000166,0.00000383,-0.00000020,0.00000097,
 -0.00000088,-0.00000087,-0.00000007,0.00000039,0.00000037,0.00000074,0
 .00000143,-0.00001811,-0.00000971,-0.00001389,0.00000014,0.00000891,-0
 .00000013,-0.00000363,0.00001245,0.00000536,-0.00000180,-0.00001175,0.
 00000008,0.00006235,-0.00002490,0.00001219,0.00001190,0.00013316,-0.00
 013608,0.00000465,0.00000903,0.00000614,0.00009906,-0.00001273,-0.0004
 9377,-0.00007249,-0.00001717,-0.00001430,-0.00007867,-0.00008065,-0.00
 009211,0.00402202,-0.00532027,0.00595400,-0.01733987,-0.01486816,0.007
 59798,0.00035258,0.00370377,-0.00095525,-0.10983693,-0.04637007,0.1008
 9600,0.11833115,-0.00001593,-0.00003617,0.00000567,-0.00001396,0.00001
 361,0.00001396,0.00002209,0.00004981,-0.00000125,-0.00003148,-0.000002
 33,-0.00000900,-0.00001631,-0.00002438,0.00002182,-0.00000369,-0.00000
 726,0.00000084,-0.00000731,-0.00000092,-0.00000328,0.00000117,-0.00000
 340,-0.00000289,0.00006537,-0.00002169,-0.00001262,0.00000809,-0.00001
 280,-0.00000235,0.00000737,0.00000233,-0.00001604,0.00000240,0.0000010
 5,-0.00000974,-0.00003644,-0.00000688,-0.00000165,0.00000117,0.0000001
 4,-0.00000437,0.00000049,-0.00000689,0.00000196,0.00000440,0.00002445,
 0.00001943,-0.00000296,-0.00000327,-0.00000302,-0.00002087,-0.00007694
 ,-0.00003913,-0.00000115,-0.00001310,0.00000926,-0.00003643,0.00017150
 ,0.00004472,-0.00000095,0.00000592,-0.00000243,-0.00000624,0.00000674,
 0.00000730,0.00000794,-0.00000011,-0.00000092,-0.00000048,-0.00000651,
 -0.00000976,0.00001039,0.00000068,-0.00000529,0.00000026,-0.00000263,-
 0.00000115,-0.00000374,0.00000580,0.00000298,-0.00000561,-0.00000054,0
 .00000417,-0.00000357,0.00000183,-0.00000275,0.00000229,-0.00000124,-0
 .00000087,0.00002469,0.00000110,-0.00000921,-0.00002079,0.00000716,0.0
 0000462,-0.00001602,-0.00000362,-0.00000424,0.00000902,-0.00000015,0.0
 0000631,0.00000058,0.00000155,-0.00000131,-0.00000224,-0.00000043,0.00
 000094,0.00000102,0.00000139,0.00000175,-0.00003538,-0.00001841,-0.000
 02122,0.00000070,0.00001563,0.00000069,-0.00000710,0.00002359,0.000007
 21,-0.00000349,-0.00002019,-0.00000308,0.00014509,-0.00018924,-0.00006
 522,0.00003179,0.00016943,-0.00017024,-0.00003997,0.00002736,-0.000002
 81,0.00001246,-0.00018289,-0.00025474,-0.00004448,-0.00009185,-0.00000
 715,-0.00004115,-0.00005276,-0.00010291,0.00400843,-0.00148367,0.00456
 546,-0.02408332,-0.02017121,0.01437770,-0.00069788,0.00159145,-0.00128
 995,-0.04623549,-0.08393756,0.07708546,0.06133733,0.09748318,-0.000002
 25,-0.00000340,-0.00000752,0.00000436,-0.00000254,0.00000292,-0.000000
 74,0.00000094,0.00000592,-0.00000118,0.00000125,0.00000239,-0.00000013
 ,0.00000095,0.00000040,-0.00000011,0.00000079,-0.00000066,0.00000197,0
 .00000086,-0.00000042,0.00000001,0.00000059,-0.00000129,-0.00000682,-0
 .00000242,0.00000079,0.00000031,0.00000056,-0.00000362,-0.00000018,-0.
 00000023,0.00000154,-0.00000096,-0.00000151,-0.00000039,0.00000075,-0.
 00000115,-0.00000025,0.00000114,0.00000049,-0.00000049,0.00000294,0.00
 000430,0.00000343,-0.00000107,0.00000157,-0.00000016,0.00000069,0.0000
 0099,-0.00000008,0.00000146,0.00000764,-0.00000737,-0.00000612,-0.0000
 0870,0.00000102,-0.00001303,-0.00001342,0.00000482,-0.00000164,0.00000
 810,-0.00000056,-0.00000286,0.00000232,0.00000087,-0.00000048,0.000000
 33,0.00000009,0.00000175,-0.00000836,-0.00000252,0.00000118,0.00000465
 ,-0.00000161,0.00000206,0.00000010,0.00000061,-0.00000117,-0.00000013,
 0.00000067,-0.00000037,0.00000015,0.00000066,0.00000145,0.00000010,0.0
 0000053,-0.00000114,0.00000126,-0.00000089,-0.00000602,-0.00000594,-0.
 00000582,0.00000401,0.00000028,0.00000497,0.00000545,0.00000534,0.0000
 0566,-0.00000249,-0.00000195,-0.00000447,-0.00000025,-0.00000051,0.000
 00079,0.00000067,0.00000046,-0.00000026,-0.00000027,-0.00000007,-0.000
 00047,0.00001406,0.00000428,-0.00000741,-0.00000167,-0.00000491,0.0000
 0345,-0.00000481,0.00000144,0.00000077,-0.00000003,0.00000167,0.000003
 02,0.00001028,0.00007261,-0.00004306,0.00000782,0.00001281,-0.00003906
 ,-0.00003652,0.00001525,0.00001591,0.00063048,-0.00037445,-0.00061892,
 -0.00010012,-0.00017963,-0.00005736,0.00001242,0.00001281,-0.00002596,
 -0.00102667,-0.00108525,0.00150015,-0.01044586,-0.00648416,0.01445340,
 -0.00081245,0.00007057,-0.00045942,0.10927429,0.08335547,-0.22706109,-
 0.11227955,-0.08587206,0.23440614,-0.00001212,-0.00002468,-0.00000421,
 -0.00001096,0.00000455,0.00001144,0.00001975,0.00002618,-0.00000737,-0
 .00001781,-0.00000065,-0.00000509,-0.00000813,-0.00002028,0.00002140,-
 0.00000242,-0.00000494,-0.00000108,-0.00000340,-0.00000087,-0.00000147
 ,0.00000273,-0.00000125,-0.00000256,0.00004027,-0.00000078,-0.00000213
 ,0.00000889,-0.00000956,-0.00000648,0.00000351,0.00000580,-0.00001170,
 0.00000056,-0.00000190,-0.00000709,-0.00001938,-0.00000395,-0.00000049
 ,0.00000123,0.00000042,-0.00000370,-0.00000115,-0.00000329,0.00000421,
 0.00000437,0.00001232,0.00001468,-0.00000168,-0.00000213,-0.00000286,0
 .00000162,-0.00002322,-0.00000721,0.00000063,-0.00000327,0.00000870,0.
 00001109,0.00004651,0.00009044,-0.00000319,-0.00000073,-0.00000119,-0.
 00000483,0.00000573,0.00000379,0.00000932,-0.00000231,0.00000267,0.000
 00089,0.00000200,-0.00001086,0.00000517,-0.00000107,-0.00000476,-0.000
 00070,-0.00000178,-0.00000099,-0.00000170,0.00000397,0.00000187,-0.000
 00278,0.00000084,0.00000296,-0.00000230,0.00000090,-0.00000155,0.00000
 160,-0.00000133,-0.00000032,0.00002097,0.00000250,-0.00001140,-0.00001
 731,0.00000337,0.00000766,-0.00001243,-0.00000453,-0.00000036,0.000005
 40,0.00000027,0.00000300,0.00000072,0.00000057,-0.00000063,-0.00000148
 ,-0.00000034,0.00000048,0.00000064,0.00000092,0.00000048,-0.00001690,-
 0.00000412,-0.00002673,-0.00000455,-0.00000497,0.00001250,-0.00000958,
 0.00001531,-0.00000467,0.00000237,-0.00001276,0.00000335,0.00002086,0.
 00002535,-0.00013676,0.00000178,-0.00003117,-0.00000044,-0.00001413,0.
 00000866,0.00001044,-0.00057601,0.00042384,-0.00074304,-0.00001613,-0.
 00002767,-0.00001757,-0.00016769,-0.00029138,-0.00006107,0.00070098,-0
 .00424495,0.00153481,-0.01849923,0.00247672,-0.01707467,0.00065969,0.0
 0058476,-0.00035298,-0.16021079,0.06926995,-0.11624865,0.01226911,-0.0
 0526803,0.01047662,0.17499295,0.00000050,-0.00000601,-0.00000378,-0.00
 000222,0.00000059,0.00000179,0.00000523,0.00000840,-0.00000249,-0.0000
 0483,0.00000046,-0.00000211,-0.00000166,-0.00000379,0.00000376,-0.0000
 0140,-0.00000168,-0.00000006,-0.00000094,0.00000007,0.00000029,-0.0000
 0010,-0.00000123,-0.00000056,0.00000761,-0.00000626,0.00000466,0.00000
 308,-0.00000570,-0.00000408,0.00000040,-0.00000041,0.00000043,-0.00000
 053,0.00000031,-0.00000088,-0.00000529,-0.00000101,-0.00000120,0.00000
 051,-0.00000012,-0.00000021,0.00000183,0.00000123,0.00000097,0.0000009
 7,0.00000415,0.00000286,-0.00000033,0.00000013,0.00000003,0.00001076,-
 0.00000825,0.00000735,-0.00000366,-0.00000736,-0.00000165,-0.00001662,
 0.00001012,0.00004406,0.00000125,0.00000563,0.00000124,-0.00000022,0.0
 0000017,0.00000174,-0.00000296,0.00000133,-0.00000327,0.,-0.00000648,0
 .00000161,0.00000296,0.00000280,0.00000023,0.00000123,0.00000018,0.000
 00013,-0.00000140,0.00000012,0.00000058,-0.00000230,-0.00000170,0.0000
 0053,0.00000019,0.00000047,-0.00000019,-0.00000015,0.00000079,-0.00000
 033,-0.00000734,-0.00000632,0.00000222,0.00000424,0.00000397,-0.000002
 72,0.00000444,0.00000616,0.00000063,0.00000003,-0.00000219,-0.00000102
 ,-0.00000036,0.00000015,0.00000010,0.00000017,0.00000037,0.00000004,-0
 .00000003,0.00000027,0.00000047,-0.00000586,0.00000546,-0.00000254,-0.
 00000582,-0.00000570,0.00000792,-0.00000213,0.00000325,-0.00001168,0.0
 0000437,-0.00000330,0.00000101,0.00004232,0.00006436,-0.00009709,-0.00
 000659,-0.00001829,0.00004727,-0.00000625,-0.00001148,0.00002592,-0.00
 092384,0.00067005,-0.00095959,0.00003389,0.00002634,-0.00000926,-0.000
 25892,-0.00036049,-0.00013594,-0.00122313,-0.00793712,0.00104156,-0.02
 850637,0.00558580,-0.02704717,0.00156907,0.00313463,0.00080407,0.07980
 617,-0.09267569,0.08265173,0.00773558,-0.00303246,0.00488337,-0.069005
 74,0.09997829,-0.00000621,-0.00001770,0.00000223,-0.00001083,0.0000063
 8,0.00000686,0.00001409,0.00002420,-0.00000509,-0.00001500,-0.00000046
 ,-0.00000603,-0.00000767,-0.00001657,0.00001433,-0.00000220,-0.0000048
 5,-0.00000014,-0.00000428,-0.00000089,-0.00000130,0.00000196,-0.000001
 78,-0.00000150,0.00003367,-0.00000575,-0.00000169,0.00000701,-0.000009
 38,-0.00000335,0.00000315,0.00000201,-0.00000806,0.00000110,0.00000102
 ,-0.00000454,-0.00001890,-0.00000277,-0.00000100,0.00000024,-0.0000000
 2,-0.00000231,-0.00000093,-0.00000522,0.00000038,0.00000438,0.00001124
 ,0.00001136,-0.00000206,-0.00000216,-0.00000183,-0.00000022,-0.0000310
 4,-0.00001451,0.00000196,-0.00000285,0.00000425,-0.00000214,0.00005813
 ,0.00005506,0.00000030,0.00000044,-0.00000089,-0.00000198,0.00000216,0
 .00000369,0.00000391,-0.00000066,-0.00000115,-0.00000119,-0.00000014,-
 0.00000362,0.00000489,-0.00000131,-0.00000231,-0.00000075,-0.00000149,
 -0.00000086,-0.00000132,0.00000300,0.00000141,-0.00000279,-0.00000037,
 0.00000216,-0.00000247,0.00000097,-0.00000157,0.00000161,-0.00000127,-
 0.00000021,0.00001891,0.00000438,-0.00000548,-0.00001504,0.00000316,0.
 00000312,-0.00001246,-0.00000563,-0.00000372,0.00000596,0.00000122,0.0
 0000495,0.00000068,0.00000089,-0.00000099,-0.00000161,-0.00000047,0.00
 000065,0.00000071,0.00000084,0.00000088,-0.00002045,-0.00001045,-0.000
 00772,-0.00000596,0.00000221,0.00000883,-0.00000602,0.00001360,-0.0000
 0912,0.00000222,-0.00001234,-0.00000143,0.00002264,-0.00005009,-0.0000
 8655,-0.00001107,0.00002332,-0.00000323,-0.00000255,-0.00000079,0.0000
 1258,-0.00042935,0.00025001,-0.00027048,0.00000591,-0.00001215,-0.0000
 0237,-0.00008380,-0.00016811,-0.00002753,0.00074760,-0.00164720,0.0013
 7544,-0.00886262,0.00068928,-0.00828710,-0.00058048,-0.00005686,0.0003
 4714,-0.11906883,0.07320105,-0.17763491,-0.01566661,0.00864285,-0.0130
 0580,0.13459075,-0.07647926,0.18670511,-0.00000451,-0.00001022,0.00000
 195,-0.00000458,0.00000422,0.00000305,0.00000950,0.00001614,-0.0000056
 9,-0.00000921,-0.00000043,-0.00000300,-0.00000456,-0.00000609,0.000003
 61,-0.00000145,-0.00000242,0.00000063,-0.00000274,0.00000016,0.0000001
 1,-0.00000047,-0.00000101,-0.00000043,0.00001769,-0.00001182,-0.000000
 18,0.00000141,-0.00000521,-0.00000202,0.00000248,-0.00000014,-0.000002
 49,0.00000039,0.00000069,-0.00000217,-0.00000920,-0.00000173,-0.000000
 13,0.00000056,0.00000015,-0.00000088,0.00000096,-0.00000115,0.00000058
 ,0.00000049,0.00000723,0.00000504,-0.00000078,-0.00000053,-0.00000044,
 0.00000181,-0.00001890,-0.00001121,-0.00000089,-0.00000751,-0.00000042
 ,-0.00000759,0.00001260,0.00008098,-0.00000046,0.00000780,0.00000032,0
 .00000012,0.00000068,0.00000115,-0.00000136,0.00000135,-0.00000193,0.0
 0000024,-0.00000758,0.00000078,0.00000296,0.00000273,0.00000016,0.0000
 0116,-0.00000059,0.00000009,-0.00000104,0.00000072,0.00000028,-0.00000
 108,-0.00000088,0.00000018,-0.00000014,0.00000057,-0.00000031,-0.00000
 016,0.00000042,-0.00000025,0.00000148,0.00000007,0.00000136,-0.0000011
 7,0.00000130,-0.00000140,-0.00000162,-0.00000033,-0.00000204,0.0000015
 3,0.00000020,0.00000170,-0.00000009,0.00000044,-0.00000029,-0.00000043
 ,0.00000001,0.00000019,0.00000030,0.00000020,0.00000058,-0.00001296,-0
 .00000866,-0.00000555,-0.00000247,0.00000263,0.00000306,-0.00000103,0.
 00000891,-0.00000129,0.00000030,-0.00000678,-0.00000071,-0.00003489,-0
 .00011701,-0.00012319,0.00003990,0.00001674,-0.00002573,-0.00003010,0.
 00000782,-0.00000648,-0.00077812,0.00006390,0.00068898,0.00001958,0.00
 017149,0.00003874,-0.00011194,0.00002034,0.00000837,0.00285871,-0.0029
 7775,0.00104158,0.01163358,-0.02243221,-0.01516979,-0.00081402,0.00095
 291,-0.00112466,-0.15162645,0.11978056,0.07145078,-0.00778087,0.010997
 95,0.00430077,-0.00914829,0.01076017,0.00937413,0.15579952,-0.00001945
 ,-0.00004051,-0.00000784,-0.00000620,0.00000643,0.00001697,0.00002720,
 0.00004445,-0.00000072,-0.00003006,0.00000327,-0.00000385,-0.00001671,
 -0.00002323,0.00002252,-0.00000231,-0.00000389,0.00000057,-0.00000421,
 -0.00000019,-0.00000250,0.00000258,-0.00000252,-0.00000462,0.00005409,
 -0.00002281,-0.00000496,0.00000874,-0.00001105,-0.00001247,0.00000559,
 0.00000158,-0.00001122,0.00000135,-0.00000075,-0.00000970,-0.00003461,
 -0.00000854,-0.00000257,0.00000259,0.00000086,-0.00000481,0.00000322,0
 .00000047,0.00000674,0.00000400,0.00002713,0.00001921,-0.00000163,-0.0
 0000214,-0.00000299,-0.00000169,-0.00002579,-0.00002403,-0.00000669,-0
 .00002462,0.00001023,-0.00000642,0.00007059,0.00009463,-0.00000627,0.0
 0001694,-0.00000344,-0.00000750,0.00000898,0.00000805,0.00000848,0.000
 00014,-0.00000038,0.00000072,-0.00001572,-0.00001205,0.00001235,0.0000
 0648,-0.00000703,0.00000274,-0.00000265,-0.00000053,-0.00000498,0.0000
 0571,0.00000393,-0.00000630,-0.00000052,0.00000512,-0.00000226,0.00000
 193,-0.00000216,0.00000132,0.00000007,-0.00000177,0.00001889,-0.000006
 51,-0.00001710,-0.00001760,0.00000853,0.00001114,-0.00001049,0.0000033
 4,0.00000284,0.00000667,-0.00000300,0.00000091,0.00000054,0.00000086,-
 0.00000043,-0.00000146,0.,0.00000073,0.00000056,0.00000144,0.00000105,
 -0.00000811,-0.00001215,-0.00003088,0.00000198,0.00001002,0.00000107,-
 0.00001635,0.00002933,0.00001649,-0.00000915,-0.00001105,0.00000192,0.
 00011450,-0.00001557,-0.00013216,0.00010180,0.00002831,-0.00010715,-0.
 00011599,0.00001519,-0.00000059,-0.00034638,0.00000703,-0.00009870,-0.
 00002247,0.00012740,0.00012194,-0.00018863,-0.00004945,0.00002897,0.00
 528817,-0.00254491,0.00518642,0.00194350,-0.02834018,-0.01759799,-0.00
 067438,0.00253827,-0.00091123,0.11137204,-0.17642913,-0.07594120,-0.00
 627544,0.00980578,0.00557649,0.00608225,-0.00541299,-0.00439229,-0.117
 22211,0.20023930,0.00000212,-0.00000450,0.00000358,-0.00000082,0.00000
 369,-0.00000067,0.00000246,0.00001185,0.00000249,-0.00000642,0.0000004
 1,-0.00000099,-0.00000310,-0.00000098,-0.00000120,-0.00000025,0.000000
 05,0.00000070,-0.00000111,0.00000008,-0.00000030,-0.00000124,-0.000002
 32,-0.00000030,0.00000750,-0.00001307,-0.00000239,-0.00000104,-0.00000
 416,0.00000158,0.00000089,-0.00000150,0.00000045,0.00000047,0.00000146
 ,-0.00000113,-0.00000882,-0.00000166,-0.00000128,-0.00000002,-0.000000
 58,0.00000018,0.00000115,-0.00000052,-0.00000119,-0.00000034,0.0000062
 6,0.00000209,-0.00000050,-0.00000025,0.00000024,0.00000045,-0.00000908
 ,-0.00000484,-0.00000270,-0.00000611,-0.00000364,0.00000962,0.00001913
 ,-0.00001021,0.00000361,0.00000195,0.00000173,0.00000246,-0.00000090,0
 .00000165,-0.00000546,0.00000297,-0.00000523,-0.00000073,-0.00000435,0
 .00000562,0.00000379,0.00000131,0.00000096,0.00000063,0.00000024,-0.00
 000032,-0.00000146,0.00000048,0.00000072,-0.00000353,-0.00000266,0.000
 00081,-0.00000053,0.00000069,-0.00000078,0.00000045,0.00000062,0.,-0.0
 0001038,-0.00000887,0.00000627,0.00000614,0.00000666,-0.00000640,0.000
 00531,0.00000919,-0.00000087,0.00000134,-0.00000332,-0.00000048,-0.000
 00045,0.00000037,-0.00000016,0.00000013,0.00000033,0.00000017,-0.00000
 015,0.00000044,0.00000090,-0.00000490,-0.00000484,-0.00000389,-0.00000
 120,0.00000462,-0.00000060,-0.00000251,0.00000585,0.00000201,-0.000000
 94,-0.00000361,0.00000031,-0.00000035,-0.00001636,-0.00001431,0.000019
 32,0.00004638,-0.00004113,-0.00000393,-0.00001125,0.00000671,-0.000306
 80,0.00024264,0.00003770,0.00000727,0.00014706,0.00002709,-0.00010634,
 -0.00005226,-0.00002419,0.00340313,-0.00484068,0.00368899,-0.00128821,
 -0.01040455,-0.00649262,0.00033381,0.00319219,-0.00031967,0.06528312,-
 0.07485600,-0.09348361,0.01522572,-0.01689244,-0.00906401,-0.01204020,
 0.01522849,0.01084794,-0.07051644,0.08821140,0.09484550\\-0.00000047,0
 .00000025,-0.00000061,-0.00000040,-0.00000063,-0.00000096,-0.00000024,
 0.,-0.00000067,0.00000007,0.00000070,-0.00000102,0.,0.00000010,-0.0000
 0042,0.00000007,0.00000015,-0.00000107,0.00000042,0.00000077,-0.000001
 05,0.00000047,0.00000059,-0.00000036,-0.00000003,0.00000046,0.00000028
 ,0.00000003,0.00000026,0.00000035,-0.00000031,-0.00000046,-0.00000002,
 -0.00000032,-0.00000065,-0.00000080,-0.00000049,-0.00000005,-0.0000008
 5,0.00000001,-0.00000005,-0.00000124,0.00000004,-0.00000012,-0.0000004
 3,-0.00000022,-0.00000021,-0.00000138,-0.00000029,-0.00000022,-0.00000
 153,0.00000056,0.00000001,-0.00000032,-0.00000071,-0.00000052,-0.00000
 033,0.00000024,-0.00000010,0.00000023,-0.00000020,-0.00000064,0.000001
 09,-0.00000032,-0.00000087,0.00000027,-0.00000018,0.00000024,0.0000004
 4,0.00000015,-0.00000050,0.00000048,-0.00000029,-0.00000045,-0.0000002
 2,-0.00000025,-0.00000028,-0.00000054,-0.00000032,-0.00000046,-0.00000
 004,0.00000006,0.00000011,-0.00000025,0.00000011,0.00000018,-0.0000001
 6,0.00000032,0.00000010,0.00000038,0.00000006,0.00000053,-0.00000018,0
 .00000053,0.00000081,-0.00000002,0.00000023,0.00000051,-0.00000055,0.0
 0000037,0.00000080,-0.00000109,0.00000068,0.00000108,-0.00000085,0.000
 00049,0.00000095,-0.00000139,0.00000034,0.00000066,-0.00000110,-0.0000
 0011,-0.00000014,-0.00000024,-0.00000036,-0.00000039,-0.00000021,0.000
 00003,0.00000004,0.00000002,-0.00000006,0.,-0.00000065,-0.00000018,-0.
 00000015,0.00000037,-0.00000017,-0.00000040,0.00000069,-0.00000007,-0.
 00000033,0.00000052,0.00000025,0.00000018,0.00000072,0.00000016,0.0000
 0021,0.00000088,0.00000035,0.00000032,0.00000084,0.00000039,-0.0000001
 2,0.00000156,-0.00000020,-0.00000041,0.00000152,0.00000016,0.00000018,
 0.00000161,-0.00000014,-0.00000044,0.00000188,0.00000014,-0.00000023,0
 .00000220,-0.00000020,-0.00000077,0.00000208,-0.00000021,-0.00000060,0
 .00000216\\\@


 A MAN THINKING OR WORKING IS ALWAYS ALONE, 
 LET HIM BE WHERE HE WILL.

                                    -- THOREAU
 Job cpu time:       0 days  6 hours 16 minutes  1.3 seconds.
 Elapsed time:       0 days  0 hours 19 minutes  4.4 seconds.
 File lengths (MBytes):  RWF=   1615 Int=      0 D2E=      0 Chk=     28 Scr=      1
 Normal termination of Gaussian 16 at Mon Dec  9 11:35:53 2024.
