 Entering Gaussian System, Link 0=g16
 Initial command:
 /apps/brussel/RL8/zen4/software/Gaussian/G16.A.03-intel-2022a/g16/l1.exe "/tmp/11098252/Gau-1844965.inp" -scrdir="/tmp/11098252/"
 Entering Link 1 = /apps/brussel/RL8/zen4/software/Gaussian/G16.A.03-intel-2022a/g16/l1.exe.bin PID=   1844968.
  
 Copyright (c) 1988,1990,1992,1993,1995,1998,2003,2009,2016,
            Gaussian, Inc.  All Rights Reserved.
  
 This is part of the Gaussian(R) 16 program.  It is based on
 the Gaussian(R) 09 system (copyright 2009, Gaussian, Inc.),
 the Gaussian(R) 03 system (copyright 2003, Gaussian, Inc.),
 the Gaussian(R) 98 system (copyright 1998, Gaussian, Inc.),
 the Gaussian(R) 94 system (copyright 1995, Gaussian, Inc.),
 the Gaussian 92(TM) system (copyright 1992, Gaussian, Inc.),
 the Gaussian 90(TM) system (copyright 1990, Gaussian, Inc.),
 the Gaussian 88(TM) system (copyright 1988, Gaussian, Inc.),
 the Gaussian 86(TM) system (copyright 1986, Carnegie Mellon
 University), and the Gaussian 82(TM) system (copyright 1983,
 Carnegie Mellon University). Gaussian is a federally registered
 trademark of Gaussian, Inc.
  
 This software contains proprietary and confidential information,
 including trade secrets, belonging to Gaussian, Inc.
  
 This software is provided under written license and may be
 used, copied, transmitted, or stored only in accord with that
 written license.
  
 The following legend is applicable only to US Government
 contracts under FAR:
  
                    RESTRICTED RIGHTS LEGEND
  
 Use, reproduction and disclosure by the US Government is
 subject to restrictions as set forth in subparagraphs (a)
 and (c) of the Commercial Computer Software - Restricted
 Rights clause in FAR 52.227-19.
  
 Gaussian, Inc.
 340 Quinnipiac St., Bldg. 40, Wallingford CT 06492
  
  
 ---------------------------------------------------------------
 Warning -- This program may not be used in any manner that
 competes with the business of Gaussian, Inc. or will provide
 assistance to any competitor of Gaussian, Inc.  The licensee
 of this program is prohibited from giving any competitor of
 Gaussian, Inc. access to this program.  By using this program,
 the user acknowledges that Gaussian, Inc. is engaged in the
 business of creating and licensing software in the field of
 computational chemistry and represents and warrants to the
 licensee that it is not a competitor of Gaussian, Inc. and that
 it will not use this program in any manner prohibited above.
 ---------------------------------------------------------------
  

 Cite this work as:
 Gaussian 16, Revision A.03,
 M. J. Frisch, G. W. Trucks, H. B. Schlegel, G. E. Scuseria, 
 M. A. Robb, J. R. Cheeseman, G. Scalmani, V. Barone, 
 G. A. Petersson, H. Nakatsuji, X. Li, M. Caricato, A. V. Marenich, 
 J. Bloino, B. G. Janesko, R. Gomperts, B. Mennucci, H. P. Hratchian, 
 J. V. Ortiz, A. F. Izmaylov, J. L. Sonnenberg, D. Williams-Young, 
 F. Ding, F. Lipparini, F. Egidi, J. Goings, B. Peng, A. Petrone, 
 T. Henderson, D. Ranasinghe, V. G. Zakrzewski, J. Gao, N. Rega, 
 G. Zheng, W. Liang, M. Hada, M. Ehara, K. Toyota, R. Fukuda, 
 J. Hasegawa, M. Ishida, T. Nakajima, Y. Honda, O. Kitao, H. Nakai, 
 T. Vreven, K. Throssell, J. A. Montgomery, Jr., J. E. Peralta, 
 F. Ogliaro, M. J. Bearpark, J. J. Heyd, E. N. Brothers, K. N. Kudin, 
 V. N. Staroverov, T. A. Keith, R. Kobayashi, J. Normand, 
 K. Raghavachari, A. P. Rendell, J. C. Burant, S. S. Iyengar, 
 J. Tomasi, M. Cossi, J. M. Millam, M. Klene, C. Adamo, R. Cammi, 
 J. W. Ochterski, R. L. Martin, K. Morokuma, O. Farkas, 
 J. B. Foresman, and D. J. Fox, Gaussian, Inc., Wallingford CT, 2016.
 
 ******************************************
 Gaussian 16:  AS64L-G16RevA.03 25-Dec-2016
                 2-Oct-2025 
 ******************************************
 %chk=Endo1TS.chk
 %mem=20GB
 %nprocshared=8
 Will use up to    8 processors via shared memory.
 ----------------------------------------------------------------------
 # opt=(calcfc,ts,noeigentest) freq cc-pvdz integral=grid=ultrafine m06
 2x
 ----------------------------------------------------------------------
 1/5=1,10=4,11=1,18=20,26=4,38=1/1,3;
 2/9=110,12=2,17=6,18=5,40=1/2;
 3/5=16,11=2,25=1,30=1,71=2,74=-55,75=-5,140=1/1,2,3;
 4//1;
 5/5=2,38=5/2;
 8/6=4,10=90,11=11/1;
 11/6=1,8=1,9=11,15=111,16=1/1,2,10;
 10/6=1,13=1/2;
 6/7=2,8=2,9=2,10=2,28=1/1;
 7/10=1,18=20,25=1/1,2,3,16;
 1/5=1,10=4,11=1,18=20,26=4/3(2);
 2/9=110/2;
 99//99;
 2/9=110/2;
 3/5=16,11=2,25=1,30=1,71=1,74=-55,75=-5/1,2,3;
 4/5=5,16=3,69=1/1;
 5/5=2,38=5/2;
 7//1,2,3,16;
 1/5=1,11=1,18=20,26=4/3(-5);
 2/9=110/2;
 6/7=2,8=2,9=2,10=2,19=2,28=1/1;
 99/9=1/99;
 -------
 Endo1TS
 -------
 Symbolic Z-matrix:
 Charge =  0 Multiplicity = 1
 C                     1.54506  -2.88078  -0.3807 
 C                     0.83715  -2.86897   0.8486 
 C                    -0.29507  -1.61661  -0.47792 
 C                     0.82232  -2.07594  -1.23062 
 C                     1.42665  -0.94196   1.54374 
 C                     0.65848  -0.14655   0.68276 
 H                     0.95487  -3.52818   1.70416 
 H                     2.53082  -3.31112  -0.53496 
 H                     1.10443  -1.71588  -2.21685 
 O                    -0.42581  -2.41603   0.62009 
 C                     2.85727  -0.79395   1.1363 
 C                     1.58636   0.49815  -0.29099 
 H                    -0.28916   0.32773   0.92466 
 H                     1.19067  -1.16103   2.58225 
 N                     2.85762   0.00411  -0.01634 
 O                     1.31392   1.26797  -1.18963 
 O                     3.84375  -1.2773    1.63677 
 C                     4.07582   0.38574  -0.71668 
 H                     4.87815  -0.1167   -0.15734 
 C                    -1.53251  -0.98222  -1.02613 
 H                    -1.21489  -0.22476  -1.76746 
 H                    -2.14458  -1.74511  -1.54459 
 O                    -2.27034  -0.40019   0.01695 
 C                    -3.44953   0.21804  -0.4458 
 H                    -3.21374   1.07099  -1.10948 
 H                    -4.07721  -0.50107  -1.00097 
 C                     4.29639   1.89034  -0.6112 
 H                     5.28333   2.13726  -1.0515 
 H                     3.51677   2.42804  -1.18175 
 C                     4.0541   -0.08361  -2.16724 
 H                     4.9881    0.19709  -2.67511 
 H                     3.95438  -1.17716  -2.21253 
 H                     3.20973   0.37497  -2.70125 
 O                     4.25055   2.24219   0.7465 
 C                     4.37699   3.62646   0.93766 
 H                     3.56671   4.1795    0.42755 
 H                     4.319     3.81816   2.01608 
 H                     5.34586   4.00252   0.55844 
 C                    -4.19255   0.7082    0.78335 
 H                    -3.55493   1.3865    1.36206 
 H                    -4.49277  -0.14666   1.40337 
 O                    -5.33936   1.47672   0.41039 
 H                    -5.80902   1.75531   1.19995 
 
 Add virtual bond connecting atoms C5         and C2         Dist= 4.03D+00.
 Add virtual bond connecting atoms C6         and C3         Dist= 3.97D+00.

 GradGradGradGradGradGradGradGradGradGradGradGradGradGradGradGradGradGrad
 Berny optimization.
 Initialization pass.
                           ----------------------------
                           !    Initial Parameters    !
                           ! (Angstroms and Degrees)  !
 --------------------------                            --------------------------
 ! Name  Definition              Value          Derivative Info.                !
 --------------------------------------------------------------------------------
 ! R1    R(1,2)                  1.4186         calculate D2E/DX2 analytically  !
 ! R2    R(1,4)                  1.3757         calculate D2E/DX2 analytically  !
 ! R3    R(1,8)                  1.0866         calculate D2E/DX2 analytically  !
 ! R4    R(2,5)                  2.1317         calculate D2E/DX2 analytically  !
 ! R5    R(2,7)                  1.0865         calculate D2E/DX2 analytically  !
 ! R6    R(2,10)                 1.361          calculate D2E/DX2 analytically  !
 ! R7    R(3,4)                  1.4234         calculate D2E/DX2 analytically  !
 ! R8    R(3,6)                  2.1018         calculate D2E/DX2 analytically  !
 ! R9    R(3,10)                 1.3645         calculate D2E/DX2 analytically  !
 ! R10   R(3,20)                 1.4947         calculate D2E/DX2 analytically  !
 ! R11   R(4,9)                  1.0871         calculate D2E/DX2 analytically  !
 ! R12   R(5,6)                  1.4014         calculate D2E/DX2 analytically  !
 ! R13   R(5,11)                 1.4948         calculate D2E/DX2 analytically  !
 ! R14   R(5,14)                 1.0873         calculate D2E/DX2 analytically  !
 ! R15   R(6,12)                 1.4916         calculate D2E/DX2 analytically  !
 ! R16   R(6,13)                 1.087          calculate D2E/DX2 analytically  !
 ! R17   R(11,15)                1.402          calculate D2E/DX2 analytically  !
 ! R18   R(11,17)                1.2072         calculate D2E/DX2 analytically  !
 ! R19   R(12,15)                1.3913         calculate D2E/DX2 analytically  !
 ! R20   R(12,16)                1.2142         calculate D2E/DX2 analytically  !
 ! R21   R(15,18)                1.4561         calculate D2E/DX2 analytically  !
 ! R22   R(18,19)                1.0996         calculate D2E/DX2 analytically  !
 ! R23   R(18,27)                1.5243         calculate D2E/DX2 analytically  !
 ! R24   R(18,30)                1.5248         calculate D2E/DX2 analytically  !
 ! R25   R(20,21)                1.1064         calculate D2E/DX2 analytically  !
 ! R26   R(20,22)                1.107          calculate D2E/DX2 analytically  !
 ! R27   R(20,23)                1.404          calculate D2E/DX2 analytically  !
 ! R28   R(23,24)                1.4095         calculate D2E/DX2 analytically  !
 ! R29   R(24,25)                1.1062         calculate D2E/DX2 analytically  !
 ! R30   R(24,26)                1.1042         calculate D2E/DX2 analytically  !
 ! R31   R(24,39)                1.5176         calculate D2E/DX2 analytically  !
 ! R32   R(27,28)                1.1086         calculate D2E/DX2 analytically  !
 ! R33   R(27,29)                1.1056         calculate D2E/DX2 analytically  !
 ! R34   R(27,34)                1.4033         calculate D2E/DX2 analytically  !
 ! R35   R(30,31)                1.0996         calculate D2E/DX2 analytically  !
 ! R36   R(30,32)                1.099          calculate D2E/DX2 analytically  !
 ! R37   R(30,33)                1.0993         calculate D2E/DX2 analytically  !
 ! R38   R(34,35)                1.4031         calculate D2E/DX2 analytically  !
 ! R39   R(35,36)                1.1057         calculate D2E/DX2 analytically  !
 ! R40   R(35,37)                1.0969         calculate D2E/DX2 analytically  !
 ! R41   R(35,38)                1.1063         calculate D2E/DX2 analytically  !
 ! R42   R(39,40)                1.0962         calculate D2E/DX2 analytically  !
 ! R43   R(39,41)                1.0979         calculate D2E/DX2 analytically  !
 ! R44   R(39,42)                1.43           calculate D2E/DX2 analytically  !
 ! R45   R(42,43)                0.96           calculate D2E/DX2 analytically  !
 ! A1    A(2,1,4)              105.5653         calculate D2E/DX2 analytically  !
 ! A2    A(2,1,8)              125.382          calculate D2E/DX2 analytically  !
 ! A3    A(4,1,8)              128.36           calculate D2E/DX2 analytically  !
 ! A4    A(1,2,5)               98.7492         calculate D2E/DX2 analytically  !
 ! A5    A(1,2,7)              128.5552         calculate D2E/DX2 analytically  !
 ! A6    A(1,2,10)             108.6831         calculate D2E/DX2 analytically  !
 ! A7    A(5,2,7)              105.1729         calculate D2E/DX2 analytically  !
 ! A8    A(5,2,10)              90.6035         calculate D2E/DX2 analytically  !
 ! A9    A(7,2,10)             115.7644         calculate D2E/DX2 analytically  !
 ! A10   A(4,3,6)               99.2987         calculate D2E/DX2 analytically  !
 ! A11   A(4,3,10)             108.1607         calculate D2E/DX2 analytically  !
 ! A12   A(4,3,20)             126.3629         calculate D2E/DX2 analytically  !
 ! A13   A(6,3,10)              90.5081         calculate D2E/DX2 analytically  !
 ! A14   A(6,3,20)             106.3364         calculate D2E/DX2 analytically  !
 ! A15   A(10,3,20)            117.6757         calculate D2E/DX2 analytically  !
 ! A16   A(1,4,3)              105.9329         calculate D2E/DX2 analytically  !
 ! A17   A(1,4,9)              128.1635         calculate D2E/DX2 analytically  !
 ! A18   A(3,4,9)              125.2079         calculate D2E/DX2 analytically  !
 ! A19   A(2,5,6)               99.2737         calculate D2E/DX2 analytically  !
 ! A20   A(2,5,11)             105.3837         calculate D2E/DX2 analytically  !
 ! A21   A(2,5,14)              93.9744         calculate D2E/DX2 analytically  !
 ! A22   A(6,5,11)             107.5137         calculate D2E/DX2 analytically  !
 ! A23   A(6,5,14)             125.6041         calculate D2E/DX2 analytically  !
 ! A24   A(11,5,14)            119.209          calculate D2E/DX2 analytically  !
 ! A25   A(3,6,5)              101.0093         calculate D2E/DX2 analytically  !
 ! A26   A(3,6,12)             102.9456         calculate D2E/DX2 analytically  !
 ! A27   A(3,6,13)              91.8655         calculate D2E/DX2 analytically  !
 ! A28   A(5,6,12)             107.7824         calculate D2E/DX2 analytically  !
 ! A29   A(5,6,13)             126.0718         calculate D2E/DX2 analytically  !
 ! A30   A(12,6,13)            119.9366         calculate D2E/DX2 analytically  !
 ! A31   A(2,10,3)             103.9555         calculate D2E/DX2 analytically  !
 ! A32   A(5,11,15)            106.3013         calculate D2E/DX2 analytically  !
 ! A33   A(5,11,17)            129.0082         calculate D2E/DX2 analytically  !
 ! A34   A(15,11,17)           124.6514         calculate D2E/DX2 analytically  !
 ! A35   A(6,12,15)            106.6225         calculate D2E/DX2 analytically  !
 ! A36   A(6,12,16)            128.141          calculate D2E/DX2 analytically  !
 ! A37   A(15,12,16)           125.1871         calculate D2E/DX2 analytically  !
 ! A38   A(11,15,12)           111.3596         calculate D2E/DX2 analytically  !
 ! A39   A(11,15,18)           123.0144         calculate D2E/DX2 analytically  !
 ! A40   A(12,15,18)           125.2016         calculate D2E/DX2 analytically  !
 ! A41   A(15,18,19)           104.2437         calculate D2E/DX2 analytically  !
 ! A42   A(15,18,27)           110.2723         calculate D2E/DX2 analytically  !
 ! A43   A(15,18,30)           111.4062         calculate D2E/DX2 analytically  !
 ! A44   A(19,18,27)           108.0739         calculate D2E/DX2 analytically  !
 ! A45   A(19,18,30)           110.7124         calculate D2E/DX2 analytically  !
 ! A46   A(27,18,30)           111.822          calculate D2E/DX2 analytically  !
 ! A47   A(3,20,21)            107.3753         calculate D2E/DX2 analytically  !
 ! A48   A(3,20,22)            109.6955         calculate D2E/DX2 analytically  !
 ! A49   A(3,20,23)            109.787          calculate D2E/DX2 analytically  !
 ! A50   A(21,20,22)           108.4649         calculate D2E/DX2 analytically  !
 ! A51   A(21,20,23)           111.3975         calculate D2E/DX2 analytically  !
 ! A52   A(22,20,23)           110.0649         calculate D2E/DX2 analytically  !
 ! A53   A(20,23,24)           112.1822         calculate D2E/DX2 analytically  !
 ! A54   A(23,24,25)           110.9069         calculate D2E/DX2 analytically  !
 ! A55   A(23,24,26)           110.7916         calculate D2E/DX2 analytically  !
 ! A56   A(23,24,39)           106.5798         calculate D2E/DX2 analytically  !
 ! A57   A(25,24,26)           108.7643         calculate D2E/DX2 analytically  !
 ! A58   A(25,24,39)           109.9531         calculate D2E/DX2 analytically  !
 ! A59   A(26,24,39)           109.8299         calculate D2E/DX2 analytically  !
 ! A60   A(18,27,28)           108.736          calculate D2E/DX2 analytically  !
 ! A61   A(18,27,29)           110.0163         calculate D2E/DX2 analytically  !
 ! A62   A(18,27,34)           108.0416         calculate D2E/DX2 analytically  !
 ! A63   A(28,27,29)           108.3298         calculate D2E/DX2 analytically  !
 ! A64   A(28,27,34)           110.9473         calculate D2E/DX2 analytically  !
 ! A65   A(29,27,34)           110.7499         calculate D2E/DX2 analytically  !
 ! A66   A(18,30,31)           110.4088         calculate D2E/DX2 analytically  !
 ! A67   A(18,30,32)           110.2908         calculate D2E/DX2 analytically  !
 ! A68   A(18,30,33)           110.1621         calculate D2E/DX2 analytically  !
 ! A69   A(31,30,32)           108.1825         calculate D2E/DX2 analytically  !
 ! A70   A(31,30,33)           108.7586         calculate D2E/DX2 analytically  !
 ! A71   A(32,30,33)           108.9879         calculate D2E/DX2 analytically  !
 ! A72   A(27,34,35)           112.1006         calculate D2E/DX2 analytically  !
 ! A73   A(34,35,36)           111.3804         calculate D2E/DX2 analytically  !
 ! A74   A(34,35,37)           107.5543         calculate D2E/DX2 analytically  !
 ! A75   A(34,35,38)           111.5657         calculate D2E/DX2 analytically  !
 ! A76   A(36,35,37)           109.1125         calculate D2E/DX2 analytically  !
 ! A77   A(36,35,38)           108.2776         calculate D2E/DX2 analytically  !
 ! A78   A(37,35,38)           108.899          calculate D2E/DX2 analytically  !
 ! A79   A(24,39,40)           110.0393         calculate D2E/DX2 analytically  !
 ! A80   A(24,39,41)           109.8646         calculate D2E/DX2 analytically  !
 ! A81   A(24,39,42)           110.7929         calculate D2E/DX2 analytically  !
 ! A82   A(40,39,41)           110.0434         calculate D2E/DX2 analytically  !
 ! A83   A(40,39,42)           105.7609         calculate D2E/DX2 analytically  !
 ! A84   A(41,39,42)           110.2704         calculate D2E/DX2 analytically  !
 ! A85   A(39,42,43)           109.5            calculate D2E/DX2 analytically  !
 ! D1    D(4,1,2,5)            -76.4586         calculate D2E/DX2 analytically  !
 ! D2    D(4,1,2,7)            166.0707         calculate D2E/DX2 analytically  !
 ! D3    D(4,1,2,10)            17.1702         calculate D2E/DX2 analytically  !
 ! D4    D(8,1,2,5)             94.6523         calculate D2E/DX2 analytically  !
 ! D5    D(8,1,2,7)            -22.8184         calculate D2E/DX2 analytically  !
 ! D6    D(8,1,2,10)          -171.7189         calculate D2E/DX2 analytically  !
 ! D7    D(2,1,4,3)             -0.2197         calculate D2E/DX2 analytically  !
 ! D8    D(2,1,4,9)            170.5078         calculate D2E/DX2 analytically  !
 ! D9    D(8,1,4,3)           -170.9741         calculate D2E/DX2 analytically  !
 ! D10   D(8,1,4,9)             -0.2466         calculate D2E/DX2 analytically  !
 ! D11   D(1,2,5,6)             73.4027         calculate D2E/DX2 analytically  !
 ! D12   D(1,2,5,11)           -37.7697         calculate D2E/DX2 analytically  !
 ! D13   D(1,2,5,14)          -159.5368         calculate D2E/DX2 analytically  !
 ! D14   D(7,2,5,6)           -152.5605         calculate D2E/DX2 analytically  !
 ! D15   D(7,2,5,11)            96.267          calculate D2E/DX2 analytically  !
 ! D16   D(7,2,5,14)           -25.5            calculate D2E/DX2 analytically  !
 ! D17   D(10,2,5,6)           -35.6079         calculate D2E/DX2 analytically  !
 ! D18   D(10,2,5,11)         -146.7804         calculate D2E/DX2 analytically  !
 ! D19   D(10,2,5,14)           91.4525         calculate D2E/DX2 analytically  !
 ! D20   D(1,2,10,3)           -27.2224         calculate D2E/DX2 analytically  !
 ! D21   D(5,2,10,3)            72.225          calculate D2E/DX2 analytically  !
 ! D22   D(7,2,10,3)           179.426          calculate D2E/DX2 analytically  !
 ! D23   D(6,3,4,1)             76.9245         calculate D2E/DX2 analytically  !
 ! D24   D(6,3,4,9)            -94.1557         calculate D2E/DX2 analytically  !
 ! D25   D(10,3,4,1)           -16.6971         calculate D2E/DX2 analytically  !
 ! D26   D(10,3,4,9)           172.2227         calculate D2E/DX2 analytically  !
 ! D27   D(20,3,4,1)          -164.7492         calculate D2E/DX2 analytically  !
 ! D28   D(20,3,4,9)            24.1707         calculate D2E/DX2 analytically  !
 ! D29   D(4,3,6,5)            -70.7464         calculate D2E/DX2 analytically  !
 ! D30   D(4,3,6,12)            40.5974         calculate D2E/DX2 analytically  !
 ! D31   D(4,3,6,13)           161.9173         calculate D2E/DX2 analytically  !
 ! D32   D(10,3,6,5)            37.7532         calculate D2E/DX2 analytically  !
 ! D33   D(10,3,6,12)          149.097          calculate D2E/DX2 analytically  !
 ! D34   D(10,3,6,13)          -89.5831         calculate D2E/DX2 analytically  !
 ! D35   D(20,3,6,5)           156.8723         calculate D2E/DX2 analytically  !
 ! D36   D(20,3,6,12)          -91.7839         calculate D2E/DX2 analytically  !
 ! D37   D(20,3,6,13)           29.536          calculate D2E/DX2 analytically  !
 ! D38   D(4,3,10,2)            26.9207         calculate D2E/DX2 analytically  !
 ! D39   D(6,3,10,2)           -73.0398         calculate D2E/DX2 analytically  !
 ! D40   D(20,3,10,2)          178.1594         calculate D2E/DX2 analytically  !
 ! D41   D(4,3,20,21)          -45.8003         calculate D2E/DX2 analytically  !
 ! D42   D(4,3,20,22)           71.8774         calculate D2E/DX2 analytically  !
 ! D43   D(4,3,20,23)         -167.0548         calculate D2E/DX2 analytically  !
 ! D44   D(6,3,20,21)           69.3441         calculate D2E/DX2 analytically  !
 ! D45   D(6,3,20,22)         -172.9781         calculate D2E/DX2 analytically  !
 ! D46   D(6,3,20,23)          -51.9104         calculate D2E/DX2 analytically  !
 ! D47   D(10,3,20,21)         168.7928         calculate D2E/DX2 analytically  !
 ! D48   D(10,3,20,22)         -73.5295         calculate D2E/DX2 analytically  !
 ! D49   D(10,3,20,23)          47.5383         calculate D2E/DX2 analytically  !
 ! D50   D(2,5,6,3)             -1.0759         calculate D2E/DX2 analytically  !
 ! D51   D(2,5,6,12)          -108.6582         calculate D2E/DX2 analytically  !
 ! D52   D(2,5,6,13)            99.4541         calculate D2E/DX2 analytically  !
 ! D53   D(11,5,6,3)           108.3986         calculate D2E/DX2 analytically  !
 ! D54   D(11,5,6,12)            0.8163         calculate D2E/DX2 analytically  !
 ! D55   D(11,5,6,13)         -151.0713         calculate D2E/DX2 analytically  !
 ! D56   D(14,5,6,3)          -102.8056         calculate D2E/DX2 analytically  !
 ! D57   D(14,5,6,12)          149.6122         calculate D2E/DX2 analytically  !
 ! D58   D(14,5,6,13)           -2.2755         calculate D2E/DX2 analytically  !
 ! D59   D(2,5,11,15)          100.7175         calculate D2E/DX2 analytically  !
 ! D60   D(2,5,11,17)          -77.0614         calculate D2E/DX2 analytically  !
 ! D61   D(6,5,11,15)           -4.4764         calculate D2E/DX2 analytically  !
 ! D62   D(6,5,11,17)          177.7447         calculate D2E/DX2 analytically  !
 ! D63   D(14,5,11,15)        -155.6209         calculate D2E/DX2 analytically  !
 ! D64   D(14,5,11,17)          26.6002         calculate D2E/DX2 analytically  !
 ! D65   D(3,6,12,15)         -103.0658         calculate D2E/DX2 analytically  !
 ! D66   D(3,6,12,16)           74.4554         calculate D2E/DX2 analytically  !
 ! D67   D(5,6,12,15)            3.1649         calculate D2E/DX2 analytically  !
 ! D68   D(5,6,12,16)         -179.3139         calculate D2E/DX2 analytically  !
 ! D69   D(13,6,12,15)         157.0928         calculate D2E/DX2 analytically  !
 ! D70   D(13,6,12,16)         -25.386          calculate D2E/DX2 analytically  !
 ! D71   D(5,11,15,12)           6.7101         calculate D2E/DX2 analytically  !
 ! D72   D(5,11,15,18)         179.5808         calculate D2E/DX2 analytically  !
 ! D73   D(17,11,15,12)       -175.3879         calculate D2E/DX2 analytically  !
 ! D74   D(17,11,15,18)         -2.5172         calculate D2E/DX2 analytically  !
 ! D75   D(6,12,15,11)          -6.2278         calculate D2E/DX2 analytically  !
 ! D76   D(6,12,15,18)        -178.9108         calculate D2E/DX2 analytically  !
 ! D77   D(16,12,15,11)        176.1575         calculate D2E/DX2 analytically  !
 ! D78   D(16,12,15,18)          3.4746         calculate D2E/DX2 analytically  !
 ! D79   D(11,15,18,19)          2.0779         calculate D2E/DX2 analytically  !
 ! D80   D(11,15,18,27)       -113.7063         calculate D2E/DX2 analytically  !
 ! D81   D(11,15,18,30)        121.5135         calculate D2E/DX2 analytically  !
 ! D82   D(12,15,18,19)        173.946          calculate D2E/DX2 analytically  !
 ! D83   D(12,15,18,27)         58.1619         calculate D2E/DX2 analytically  !
 ! D84   D(12,15,18,30)        -66.6183         calculate D2E/DX2 analytically  !
 ! D85   D(15,18,27,28)        173.6999         calculate D2E/DX2 analytically  !
 ! D86   D(15,18,27,29)        -67.8108         calculate D2E/DX2 analytically  !
 ! D87   D(15,18,27,34)         53.2015         calculate D2E/DX2 analytically  !
 ! D88   D(19,18,27,28)         60.3436         calculate D2E/DX2 analytically  !
 ! D89   D(19,18,27,29)        178.8329         calculate D2E/DX2 analytically  !
 ! D90   D(19,18,27,34)        -60.1548         calculate D2E/DX2 analytically  !
 ! D91   D(30,18,27,28)        -61.7582         calculate D2E/DX2 analytically  !
 ! D92   D(30,18,27,29)         56.7311         calculate D2E/DX2 analytically  !
 ! D93   D(30,18,27,34)        177.7434         calculate D2E/DX2 analytically  !
 ! D94   D(15,18,30,31)       -178.9887         calculate D2E/DX2 analytically  !
 ! D95   D(15,18,30,32)        -59.4812         calculate D2E/DX2 analytically  !
 ! D96   D(15,18,30,33)         60.8699         calculate D2E/DX2 analytically  !
 ! D97   D(19,18,30,31)        -63.4725         calculate D2E/DX2 analytically  !
 ! D98   D(19,18,30,32)         56.0351         calculate D2E/DX2 analytically  !
 ! D99   D(19,18,30,33)        176.3861         calculate D2E/DX2 analytically  !
 ! D100  D(27,18,30,31)         57.1039         calculate D2E/DX2 analytically  !
 ! D101  D(27,18,30,32)        176.6114         calculate D2E/DX2 analytically  !
 ! D102  D(27,18,30,33)        -63.0375         calculate D2E/DX2 analytically  !
 ! D103  D(3,20,23,24)         179.8179         calculate D2E/DX2 analytically  !
 ! D104  D(21,20,23,24)         61.0126         calculate D2E/DX2 analytically  !
 ! D105  D(22,20,23,24)        -59.3371         calculate D2E/DX2 analytically  !
 ! D106  D(20,23,24,25)        -64.4679         calculate D2E/DX2 analytically  !
 ! D107  D(20,23,24,26)         56.4213         calculate D2E/DX2 analytically  !
 ! D108  D(20,23,24,39)        175.8702         calculate D2E/DX2 analytically  !
 ! D109  D(23,24,39,40)         57.3082         calculate D2E/DX2 analytically  !
 ! D110  D(23,24,39,41)        -64.0026         calculate D2E/DX2 analytically  !
 ! D111  D(23,24,39,42)        173.9091         calculate D2E/DX2 analytically  !
 ! D112  D(25,24,39,40)        -62.9699         calculate D2E/DX2 analytically  !
 ! D113  D(25,24,39,41)        175.7193         calculate D2E/DX2 analytically  !
 ! D114  D(25,24,39,42)         53.631          calculate D2E/DX2 analytically  !
 ! D115  D(26,24,39,40)        177.3797         calculate D2E/DX2 analytically  !
 ! D116  D(26,24,39,41)         56.0688         calculate D2E/DX2 analytically  !
 ! D117  D(26,24,39,42)        -66.0195         calculate D2E/DX2 analytically  !
 ! D118  D(18,27,34,35)       -176.9728         calculate D2E/DX2 analytically  !
 ! D119  D(28,27,34,35)         63.922          calculate D2E/DX2 analytically  !
 ! D120  D(29,27,34,35)        -56.4181         calculate D2E/DX2 analytically  !
 ! D121  D(27,34,35,36)         59.7867         calculate D2E/DX2 analytically  !
 ! D122  D(27,34,35,37)        179.3013         calculate D2E/DX2 analytically  !
 ! D123  D(27,34,35,38)        -61.337          calculate D2E/DX2 analytically  !
 ! D124  D(24,39,42,43)        178.3589         calculate D2E/DX2 analytically  !
 ! D125  D(40,39,42,43)        -62.4301         calculate D2E/DX2 analytically  !
 ! D126  D(41,39,42,43)         56.5082         calculate D2E/DX2 analytically  !
 --------------------------------------------------------------------------------
 Trust Radius=3.00D-01 FncErr=1.00D-07 GrdErr=1.00D-06 EigMax=2.50D+02 EigMin=1.00D-04
 Number of steps in this run=    258 maximum allowed number of steps=    258.
 Search for a saddle point of order  1.
 GradGradGradGradGradGradGradGradGradGradGradGradGradGradGradGradGradGrad

                          Input orientation:                          
 ---------------------------------------------------------------------
 Center     Atomic      Atomic             Coordinates (Angstroms)
 Number     Number       Type             X           Y           Z
 ---------------------------------------------------------------------
      1          6           0        1.545055   -2.880781   -0.380695
      2          6           0        0.837153   -2.868967    0.848599
      3          6           0       -0.295070   -1.616610   -0.477924
      4          6           0        0.822316   -2.075941   -1.230619
      5          6           0        1.426653   -0.941957    1.543735
      6          6           0        0.658478   -0.146546    0.682756
      7          1           0        0.954871   -3.528175    1.704161
      8          1           0        2.530816   -3.311123   -0.534963
      9          1           0        1.104429   -1.715880   -2.216850
     10          8           0       -0.425810   -2.416034    0.620085
     11          6           0        2.857267   -0.793950    1.136299
     12          6           0        1.586356    0.498149   -0.290989
     13          1           0       -0.289163    0.327733    0.924659
     14          1           0        1.190668   -1.161028    2.582254
     15          7           0        2.857615    0.004114   -0.016335
     16          8           0        1.313915    1.267970   -1.189628
     17          8           0        3.843747   -1.277302    1.636768
     18          6           0        4.075820    0.385741   -0.716676
     19          1           0        4.878150   -0.116697   -0.157337
     20          6           0       -1.532513   -0.982224   -1.026131
     21          1           0       -1.214887   -0.224755   -1.767459
     22          1           0       -2.144582   -1.745114   -1.544586
     23          8           0       -2.270337   -0.400190    0.016954
     24          6           0       -3.449526    0.218036   -0.445798
     25          1           0       -3.213737    1.070994   -1.109477
     26          1           0       -4.077211   -0.501067   -1.000966
     27          6           0        4.296392    1.890335   -0.611200
     28          1           0        5.283330    2.137263   -1.051500
     29          1           0        3.516768    2.428037   -1.181745
     30          6           0        4.054097   -0.083612   -2.167237
     31          1           0        4.988103    0.197086   -2.675106
     32          1           0        3.954376   -1.177162   -2.212526
     33          1           0        3.209725    0.374966   -2.701254
     34          8           0        4.250554    2.242189    0.746499
     35          6           0        4.376988    3.626462    0.937658
     36          1           0        3.566708    4.179498    0.427552
     37          1           0        4.319001    3.818162    2.016077
     38          1           0        5.345861    4.002518    0.558442
     39          6           0       -4.192550    0.708196    0.783346
     40          1           0       -3.554930    1.386496    1.362063
     41          1           0       -4.492775   -0.146658    1.403367
     42          8           0       -5.339359    1.476723    0.410393
     43          1           0       -5.809023    1.755313    1.199952
 ---------------------------------------------------------------------
                    Distance matrix (angstroms):
                    1          2          3          4          5
     1  C    0.000000
     2  C    1.418601   0.000000
     3  C    2.234646   2.147089   0.000000
     4  C    1.375678   2.225367   1.423407   0.000000
     5  C    2.734317   2.131688   2.739816   3.057480   0.000000
     6  C    3.064798   2.733314   2.101790   2.722207   1.401448
     7  H    2.261429   1.086462   3.158786   3.277116   2.633788
     8  H    1.086608   2.231197   3.295491   2.220041   3.339627
     9  H    2.218696   3.286035   2.234349   1.087145   3.852893
    10  O    2.258730   1.361045   1.364476   2.258005   2.541191
    11  C    2.894484   2.910211   3.635892   3.374437   1.494847
    12  C    3.380373   3.632828   2.836708   2.844750   2.337867
    13  H    3.919549   3.390172   2.397445   3.414419   2.222474
    14  H    3.444156   2.459184   3.432151   3.938369   1.087291
    15  N    3.190328   3.617316   3.574805   3.153341   2.318733
    16  O    4.233194   4.636369   3.378780   3.380102   3.516783
    17  O    3.453301   3.492022   4.660135   4.241318   2.442019
    18  C    4.145820   4.850997   4.813636   4.112092   3.726973
    19  H    4.335847   4.991648   5.395806   4.630374   3.935420
    20  C    3.673218   3.562265   1.494738   2.604468   3.919502
    21  H    4.073680   4.248115   2.108607   2.804511   4.296058
    22  H    4.032097   3.985113   2.138919   3.001750   4.789207
    23  O    4.568224   4.054995   2.371974   3.732169   4.036373
    24  C    5.878158   5.438811   3.649322   4.911915   5.392675
    25  H    6.228463   5.980557   4.017548   5.119336   5.711806
    26  H    6.136583   5.760105   3.977763   5.151537   6.079672
    27  C    5.512398   6.062038   5.779096   5.308882   4.571764
    28  H    6.293286   6.959972   6.748266   6.138715   5.575912
    29  H    5.719518   6.273825   5.602200   5.248645   4.811827
    30  C    4.160670   5.215573   4.911122   3.910376   4.627260
    31  H    5.156759   6.248805   6.002418   4.960542   5.637372
    32  H    3.473147   4.685058   4.610830   3.403196   4.533674
    33  H    4.330821   5.362244   4.603603   3.724169   4.788900
    34  O    5.902128   6.147003   6.087055   5.857308   4.329987
    35  C    7.218179   7.397902   7.163924   7.060773   5.471952
    36  H    7.388361   7.570245   7.023395   7.029348   5.661714
    37  H    7.636434   7.629152   7.552909   7.583422   5.589948
    38  H    7.918833   8.223743   8.029244   7.785298   6.385830
    39  C    6.867012   6.172379   4.710188   6.079174   5.905645
    40  H    6.874351   6.137019   4.799050   6.153922   5.501897
    41  H    6.863942   6.010563   4.829155   6.237805   5.974264
    42  O    8.185892   7.564810   5.983533   7.299355   7.274160
    43  H    8.835965   8.104263   6.677485   8.034976   7.729713
                    6          7          8          9         10
     6  C    0.000000
     7  H    3.544930   0.000000
     8  H    3.873375   2.746705   0.000000
     9  H    3.327070   4.322165   2.721787   0.000000
    10  O    2.515986   2.078066   3.298023   3.298492   0.000000
    11  C    2.336559   3.378989   3.039054   3.894355   3.698138
    12  C    1.491566   4.537696   3.932185   2.973738   3.656683
    13  H    1.086960   4.125927   4.829498   3.998441   2.764000
    14  H    2.218218   2.535751   4.016957   4.831842   2.835163
    15  N    2.312494   4.365502   3.371434   3.297621   4.128320
    16  O    2.436447   5.613015   4.783046   3.162662   4.457980
    17  O    3.512077   3.662864   3.252173   4.748324   4.534255
    18  C    3.730947   5.560532   4.010843   3.936559   5.468231
    19  H    4.302590   5.522271   3.982077   4.586933   5.832952
    20  C    2.901568   4.485916   4.709104   2.984883   2.447576
    21  H    3.085315   5.260473   5.007495   2.793677   3.335373
    22  H    3.920920   4.831177   5.032998   3.317961   2.844312
    23  O    3.014230   4.799263   5.641739   4.255581   2.798155
    24  C    4.275775   6.168884   6.944595   5.255013   4.149372
    25  H    4.437178   6.815145   7.247959   5.257328   4.787827
    26  H    5.038587   6.465520   7.195804   5.459262   4.430309
    27  C    4.365504   6.773988   5.493472   5.076566   6.508461
    28  H    5.441754   7.643717   6.126015   5.802410   7.491394
    29  H    4.274888   7.097058   5.859043   4.905392   6.500426
    30  C    4.433582   6.038041   3.924478   3.371543   5.768789
    31  H    5.489897   7.022999   4.788110   4.353431   6.855446
    32  H    4.506414   5.464863   3.065050   2.900420   5.361391
    33  H    4.269937   6.302901   4.329086   3.006419   5.660220
    34  O    4.314293   6.713847   5.953060   5.860533   6.601773
    35  C    5.303572   7.967888   7.328509   7.014355   7.725249
    36  H    5.218964   8.237697   7.622920   6.914562   7.712218
    37  H    5.558425   8.085996   7.780239   7.673120   7.957840
    38  H    6.261130   8.792315   7.912608   7.641470   8.632137
    39  C    4.926781   6.729835   7.943331   6.552504   4.896509
    40  H    4.534808   6.679021   7.918500   6.644018   4.980076
    41  H    5.201412   6.418877   7.943664   6.848147   4.722690
    42  O    6.219585   8.144948   9.260498   7.656209   6.272200
    43  H    6.761149   8.597659   9.911187   8.456922   6.834864
                   11         12         13         14         15
    11  C    0.000000
    12  C    2.306921   0.000000
    13  H    3.347086   2.241520   0.000000
    14  H    2.236758   3.341401   2.674683   0.000000
    15  N    1.401953   1.391260   3.300365   3.299838   0.000000
    16  O    3.470358   1.214249   2.814980   4.488019   2.314510
    17  O    1.207162   3.458943   4.490455   2.818917   2.312408
    18  C    2.511983   2.528097   4.663735   4.647530   1.456070
    19  H    2.493218   3.351389   5.298052   4.710999   2.029049
    20  C    4.897113   3.529771   2.658475   4.524172   4.611483
    21  H    5.033710   3.248002   2.899950   5.057994   4.438929
    22  H    5.754159   4.530302   3.719737   5.338151   5.515190
    23  O    5.263108   3.971892   2.297575   4.374722   5.143973
    24  C    6.580485   5.046042   3.446459   5.709844   6.325364
    25  H    6.736365   4.902955   3.639132   6.165191   6.260552
    26  H    7.262277   5.794695   4.329463   6.405120   7.022572
    27  C    3.511441   3.063497   5.082116   5.399489   2.445766
    28  H    4.389106   4.114935   6.183226   6.390053   3.392047
    29  H    4.023614   2.871307   4.830458   5.697352   2.769127
    30  C    3.584736   3.154124   5.347236   5.649577   2.462853
    31  H    4.477658   4.164917   6.389438   6.626071   3.412518
    32  H    3.544732   3.479438   5.487646   5.534280   2.724253
    33  H    4.027084   2.908587   5.039017   5.861000   2.733185
    34  O    3.363232   3.349031   4.930103   4.931002   2.744299
    35  C    4.678574   4.368471   5.714433   5.981421   4.042277
    36  H    5.073541   4.241512   5.472746   6.229729   4.258366
    37  H    4.917545   4.879794   5.882981   5.907568   4.562161
    38  H    5.434439   5.209224   6.737333   6.929910   4.744362
    39  C    7.216712   5.881672   3.924430   5.975710   7.130221
    40  H    6.776547   5.473076   3.460858   5.522630   6.703111
    41  H    7.383321   6.343694   4.257295   5.892389   7.487758
    42  O    8.536251   7.029586   5.204722   7.369937   8.339128
    43  H    9.033680   7.648202   5.708119   7.707884   8.925058
                   16         17         18         19         20
    16  O    0.000000
    17  O    4.568038   0.000000
    18  C    2.937708   2.891067   0.000000
    19  H    3.960644   2.373985   1.099562   0.000000
    20  C    3.632115   6.006852   5.781046   6.526909   0.000000
    21  H    2.992817   6.187600   5.428483   6.303116   1.106441
    22  H    4.600638   6.797054   6.627170   7.341319   1.106989
    23  O    4.133456   6.385542   6.436584   7.156229   1.403985
    24  C    4.934168   7.730779   7.532087   8.339391   2.335027
    25  H    4.532643   7.928710   7.332224   8.233821   2.655026
    26  H    5.677088   8.384614   8.206044   9.003218   2.589910
    27  C    3.101143   3.910521   1.524329   2.138367   6.511520
    28  H    4.065834   4.578039   2.153606   2.458462   7.495836
    29  H    2.489654   4.666955   2.167903   3.062425   6.095025
    30  C    3.207973   3.992442   1.524759   2.172523   5.772334
    31  H    4.105252   4.698471   2.168709   2.539628   6.828494
    32  H    3.741260   3.852185   2.166791   2.490331   5.617071
    33  H    2.583905   4.685126   2.165361   3.081702   5.209302
    34  O    3.649868   3.653066   2.370192   2.602910   6.854409
    35  C    4.412510   4.981968   3.650999   3.932101   7.747171
    36  H    4.020863   5.596036   3.995128   4.529820   7.399907
    37  H    5.080410   5.131617   4.394154   4.529845   8.157141
    38  H    5.175914   5.594250   4.039803   4.207021   8.641212
    39  C    5.875979   8.321815   8.409518   9.156579   3.634216
    40  H    5.498257   7.868399   7.971889   8.699713   3.924854
    41  H    6.514787   8.416082   8.843011   9.500049   3.919666
    42  O    6.846145   9.665304   9.544953  10.356583   4.754167
    43  H    7.528867  10.127365  10.161659  10.934456   5.544195
                   21         22         23         24         25
    21  H    0.000000
    22  H    1.795967   0.000000
    23  O    2.080597   2.064714   0.000000
    24  C    2.633717   2.600802   1.409549   0.000000
    25  H    2.471297   3.043497   2.079238   1.106166   0.000000
    26  H    2.976031   2.361828   2.076326   1.104223   1.796869
    27  C    6.015375   7.454787   6.983052   7.926108   7.571105
    28  H    6.951155   8.395824   8.039785   8.961757   8.563903
    29  H    5.456091   7.042565   6.551819   7.345405   6.866330
    30  C    5.286013   6.447628   6.698461   7.704460   7.434607
    31  H    6.283220   7.478329   7.764591   8.727189   8.395540
    32  H    5.275078   6.161656   6.657426   7.738583   7.592942
    33  H    4.561670   5.873774   6.166085   7.032591   6.654252
    34  O    6.502065   7.876892   7.073643   8.050466   7.780230
    35  C    7.308803   8.806034   7.826145   8.647869   8.266818
    36  H    6.861426   8.462221   7.430560   8.104533   7.615753
    37  H    7.828425   9.241551   8.075293   8.909082   8.605705
    38  H    8.143898   9.672887   8.813825   9.627546   9.200136
    39  C    4.030320   3.953754   2.347505   1.517609   2.161591
    40  H    4.226800   4.499408   2.579098   2.155173   2.514849
    41  H    4.561226   4.093837   2.631663   2.154247   3.071319
    42  O    4.964810   4.940524   3.618908   2.426690   2.644408
    43  H    5.816553   5.763125   4.309058   3.261739   3.540800
                   26         27         28         29         30
    26  H    0.000000
    27  C    8.717107   0.000000
    28  H    9.725383   1.108550   0.000000
    29  H    8.141305   1.105649   1.795064   0.000000
    30  C    8.225122   2.525158   2.772755   2.751054   0.000000
    31  H    9.245003   2.757764   2.547065   3.061388   1.099586
    32  H    8.150544   3.477177   3.754932   3.775112   1.099021
    33  H    7.533781   2.800984   3.182329   2.572602   1.099287
    34  O    8.940400   1.403299   2.076159   2.071499   3.733337
    35  C    9.605636   2.328002   2.644980   2.582261   4.848637
    36  H    9.076224   2.617577   3.050428   2.379064   5.014438
    37  H    9.912349   3.258775   3.628413   3.578001   5.726616
    38  H   10.559750   2.632635   2.464751   2.975369   5.078823
    39  C    2.158562   8.683568   9.757110   8.139596   8.794321
    40  H    3.069133   8.111158   9.192594   7.587139   8.515543
    41  H    2.465586   9.244311  10.335129   8.801400   9.262948
    42  O    2.737993   9.698579  10.743136   9.048254   9.864879
    43  H    3.596452  10.267323  11.324982   9.648597  10.583040
                   31         32         33         34         35
    31  H    0.000000
    32  H    1.780767   0.000000
    33  H    1.787443   1.789542   0.000000
    34  O    4.053863   4.531612   4.056704   0.000000
    35  C    5.018580   5.759953   5.017610   1.403118   0.000000
    36  H    5.244660   5.984489   4.938758   2.079072   1.105717
    37  H    5.963815   6.554944   5.944687   2.024896   1.096859
    38  H    5.006509   6.036852   5.324268   2.081783   1.106317
    39  C    9.823773   8.882693   8.188233   8.581404   9.054119
    40  H    9.523489   8.702856   7.955771   7.876339   8.253053
    41  H   10.326623   9.246133   8.743484   9.087567   9.650182
    42  O   10.854227  10.014805   9.164227   9.626284   9.965279
    43  H   11.576790  10.750273   9.922831  10.081555  10.359769
                   36         37         38         39         40
    36  H    0.000000
    37  H    1.794414   0.000000
    38  H    1.792718   1.792520   0.000000
    39  C    8.507797   9.145382  10.093781   0.000000
    40  H    7.706614   8.266772   9.312006   1.096159   0.000000
    41  H    9.199082   9.682077  10.711131   1.097878   1.797726
    42  O    9.307165  10.067000  10.980687   1.430000   2.024353
    43  H    9.714814  10.368137  11.397057   1.970533   2.289812
                   41         42         43
    41  H    0.000000
    42  O    2.082803   0.000000
    43  H    2.321935   0.960000   0.000000
 Stoichiometry    C15H21NO6
 Framework group  C1[X(C15H21NO6)]
 Deg. of freedom   123
 Full point group                 C1      NOp   1
 Largest Abelian subgroup         C1      NOp   1
 Largest concise Abelian subgroup C1      NOp   1
                         Standard orientation:                         
 ---------------------------------------------------------------------
 Center     Atomic      Atomic             Coordinates (Angstroms)
 Number     Number       Type             X           Y           Z
 ---------------------------------------------------------------------
      1          6           0       -0.257367   -2.858877    0.296351
      2          6           0        0.467198   -2.712000   -0.914377
      3          6           0        1.398740   -1.369671    0.478595
      4          6           0        0.336497   -1.996764    1.188862
      5          6           0       -0.356012   -0.855289   -1.561710
      6          6           0        0.283903    0.003022   -0.657350
      7          1           0        0.454017   -3.350708   -1.793170
      8          1           0       -1.181039   -3.419224    0.412797
      9          1           0       -0.009982   -1.711167    2.178948
     10          8           0        1.655039   -2.106456   -0.640893
     11          6           0       -1.801504   -0.909424   -1.184631
     12          6           0       -0.739719    0.486860    0.313664
     13          1           0        1.165773    0.604986   -0.860883
     14          1           0       -0.072706   -1.005381   -2.600658
     15          7           0       -1.929472   -0.158884   -0.007437
     16          8           0       -0.588549    1.253847    1.242793
     17          8           0       -2.705903   -1.499570   -1.724105
     18          6           0       -3.200907    0.035957    0.674936
     19          1           0       -3.919107   -0.547030    0.080503
     20          6           0        2.531123   -0.598805    1.076692
     21          1           0        2.102193    0.084466    1.833905
     22          1           0        3.227526   -1.292952    1.585226
     23          8           0        3.206845    0.110485    0.070968
     24          6           0        4.285309    0.860718    0.581746
     25          1           0        3.926513    1.651984    1.266413
     26          1           0        4.990716    0.210715    1.128743
     27          6           0       -3.614781    1.501686    0.612255
     28          1           0       -4.634148    1.602287    1.036111
     29          1           0       -2.923934    2.116262    1.218460
     30          6           0       -3.146687   -0.476821    2.109860
     31          1           0       -4.119364   -0.338211    2.603596
     32          1           0       -2.905312   -1.548933    2.122599
     33          1           0       -2.380559    0.069074    2.678612
     34          8           0       -3.588474    1.903616   -0.731995
     35          6           0       -3.891555    3.265389   -0.881847
     36          1           0       -3.171131    3.901264   -0.334798
     37          1           0       -3.837758    3.500483   -1.951864
     38          1           0       -4.908738    3.498421   -0.514461
     39          6           0        4.981939    1.486138   -0.612696
     40          1           0        4.272505    2.095237   -1.184767
     41          1           0        5.403980    0.699876   -1.252234
     42          8           0        6.010383    2.384204   -0.187628
     43          1           0        6.455070    2.749017   -0.956240
 ---------------------------------------------------------------------
 Rotational constants (GHZ):           0.4314520           0.1677173           0.1425605
 Standard basis: CC-pVDZ (5D, 7F)
 There are   435 symmetry adapted cartesian basis functions of A   symmetry.
 There are   413 symmetry adapted basis functions of A   symmetry.
   413 basis functions,   873 primitive gaussians,   435 cartesian basis functions
    83 alpha electrons       83 beta electrons
       nuclear repulsion energy      1967.3020202941 Hartrees.
 NAtoms=   43 NActive=   43 NUniq=   43 SFac= 1.00D+00 NAtFMM=   60 NAOKFM=F Big=F
 Integral buffers will be    131072 words long.
 Raffenetti 2 integral format.
 Two-electron integral symmetry is turned on.
 One-electron integrals computed using PRISM.
 NBasis=   413 RedAO= T EigKep=  4.25D-04  NBF=   413
 NBsUse=   413 1.00D-06 EigRej= -1.00D+00 NBFU=   413
 ExpMin= 1.22D-01 ExpMax= 1.17D+04 ExpMxC= 4.01D+02 IAcc=3 IRadAn=         5 AccDes= 0.00D+00
 Harris functional with IExCor= 1009 and IRadAn=       5 diagonalized for initial guess.
 HarFok:  IExCor= 1009 AccDes= 0.00D+00 IRadAn=         5 IDoV= 1 UseB2=F ITyADJ=14
 ICtDFT=  3500011 ScaDFX=  1.000000  1.000000  1.000000  1.000000
 FoFCou: FMM=F IPFlag=           0 FMFlag=      100000 FMFlg1=           0
         NFxFlg=           0 DoJE=T BraDBF=F KetDBF=T FulRan=T
         wScrn=  0.000000 ICntrl=       500 IOpCl=  0 I1Cent=   200000004 NGrid=           0
         NMat0=    1 NMatS0=      1 NMatT0=    0 NMatD0=    1 NMtDS0=    0 NMtDT0=    0
 Petite list used in FoFCou.
 Requested convergence on RMS density matrix=1.00D-08 within 128 cycles.
 Requested convergence on MAX density matrix=1.00D-06.
 Requested convergence on             energy=1.00D-06.
 No special actions if energy rises.
 Integral accuracy reduced to 1.0D-05 until final iterations.
 Initial convergence to 1.0D-05 achieved.  Increase integral accuracy.
 SCF Done:  E(RM062X) =  -1089.90295596     A.U. after   15 cycles
            NFock= 15  Conv=0.76D-08     -V/T= 2.0061
 DoSCS=F DFT=T ScalE2(SS,OS)=  1.000000  1.000000
 Range of M.O.s used for correlation:     1   413
 NBasis=   413 NAE=    83 NBE=    83 NFC=     0 NFV=     0
 NROrb=    413 NOA=    83 NOB=    83 NVA=   330 NVB=   330
 Symmetrizing basis deriv contribution to polar:
 IMax=3 JMax=2 DiffMx= 0.00D+00
 G2DrvN: will do    44 centers at a time, making    1 passes.
 Calling FoFCou, ICntrl=  3107 FMM=F I1Cent=   0 AccDes= 0.00D+00.
 End of G2Drv F.D. properties file   721 does not exist.
 End of G2Drv F.D. properties file   722 does not exist.
 End of G2Drv F.D. properties file   788 does not exist.
          IDoAtm=1111111111111111111111111111111111111111111
          Differentiating once with respect to nuclear coordinates.
 CalDSu exits because no D1Ps are significant.
          There are   132 degrees of freedom in the 1st order CPHF.  IDoFFX=6 NUNeed=     0.
    126 vectors produced by pass  0 Test12= 2.74D-14 1.00D-09 XBig12= 1.02D-01 6.90D-02.
 AX will form   126 AO Fock derivatives at one time.
    126 vectors produced by pass  1 Test12= 2.74D-14 1.00D-09 XBig12= 1.71D-02 3.74D-02.
    126 vectors produced by pass  2 Test12= 2.74D-14 1.00D-09 XBig12= 3.70D-04 2.09D-03.
    126 vectors produced by pass  3 Test12= 2.74D-14 1.00D-09 XBig12= 4.21D-06 2.88D-04.
    126 vectors produced by pass  4 Test12= 2.74D-14 1.00D-09 XBig12= 2.26D-08 2.12D-05.
    126 vectors produced by pass  5 Test12= 2.74D-14 1.00D-09 XBig12= 8.18D-11 1.11D-06.
     82 vectors produced by pass  6 Test12= 2.74D-14 1.00D-09 XBig12= 2.54D-13 4.04D-08.
      4 vectors produced by pass  7 Test12= 2.74D-14 1.00D-09 XBig12= 6.97D-16 2.16D-09.
 InvSVY:  IOpt=1 It=  1 EMax= 1.28D-15
 Solved reduced A of dimension   842 with   132 vectors.
 End of Minotr F.D. properties file   721 does not exist.
 End of Minotr F.D. properties file   722 does not exist.
 End of Minotr F.D. properties file   788 does not exist.

 **********************************************************************

            Population analysis using the SCF density.

 **********************************************************************

 Orbital symmetries:
       Occupied  (A) (A) (A) (A) (A) (A) (A) (A) (A) (A) (A) (A)
                 (A) (A) (A) (A) (A) (A) (A) (A) (A) (A) (A) (A)
                 (A) (A) (A) (A) (A) (A) (A) (A) (A) (A) (A) (A)
                 (A) (A) (A) (A) (A) (A) (A) (A) (A) (A) (A) (A)
                 (A) (A) (A) (A) (A) (A) (A) (A) (A) (A) (A) (A)
                 (A) (A) (A) (A) (A) (A) (A) (A) (A) (A) (A) (A)
                 (A) (A) (A) (A) (A) (A) (A) (A) (A) (A) (A)
       Virtual   (A) (A) (A) (A) (A) (A) (A) (A) (A) (A) (A) (A)
                 (A) (A) (A) (A) (A) (A) (A) (A) (A) (A) (A) (A)
                 (A) (A) (A) (A) (A) (A) (A) (A) (A) (A) (A) (A)
                 (A) (A) (A) (A) (A) (A) (A) (A) (A) (A) (A) (A)
                 (A) (A) (A) (A) (A) (A) (A) (A) (A) (A) (A) (A)
                 (A) (A) (A) (A) (A) (A) (A) (A) (A) (A) (A) (A)
                 (A) (A) (A) (A) (A) (A) (A) (A) (A) (A) (A) (A)
                 (A) (A) (A) (A) (A) (A) (A) (A) (A) (A) (A) (A)
                 (A) (A) (A) (A) (A) (A) (A) (A) (A) (A) (A) (A)
                 (A) (A) (A) (A) (A) (A) (A) (A) (A) (A) (A) (A)
                 (A) (A) (A) (A) (A) (A) (A) (A) (A) (A) (A) (A)
                 (A) (A) (A) (A) (A) (A) (A) (A) (A) (A) (A) (A)
                 (A) (A) (A) (A) (A) (A) (A) (A) (A) (A) (A) (A)
                 (A) (A) (A) (A) (A) (A) (A) (A) (A) (A) (A) (A)
                 (A) (A) (A) (A) (A) (A) (A) (A) (A) (A) (A) (A)
                 (A) (A) (A) (A) (A) (A) (A) (A) (A) (A) (A) (A)
                 (A) (A) (A) (A) (A) (A) (A) (A) (A) (A) (A) (A)
                 (A) (A) (A) (A) (A) (A) (A) (A) (A) (A) (A) (A)
                 (A) (A) (A) (A) (A) (A) (A) (A) (A) (A) (A) (A)
                 (A) (A) (A) (A) (A) (A) (A) (A) (A) (A) (A) (A)
                 (A) (A) (A) (A) (A) (A) (A) (A) (A) (A) (A) (A)
                 (A) (A) (A) (A) (A) (A) (A) (A) (A) (A) (A) (A)
                 (A) (A) (A) (A) (A) (A) (A) (A) (A) (A) (A) (A)
                 (A) (A) (A) (A) (A) (A) (A) (A) (A) (A) (A) (A)
                 (A) (A) (A) (A) (A) (A) (A) (A) (A) (A) (A) (A)
                 (A) (A) (A) (A) (A) (A) (A) (A) (A) (A) (A) (A)
                 (A) (A) (A) (A) (A) (A) (A) (A) (A) (A) (A) (A)
                 (A) (A) (A) (A) (A) (A)
 The electronic state is 1-A.
 Alpha  occ. eigenvalues --  -19.70217 -19.65664 -19.63093 -19.62826 -19.61658
 Alpha  occ. eigenvalues --  -19.61464 -14.78745 -10.65689 -10.65520 -10.63780
 Alpha  occ. eigenvalues --  -10.63435 -10.61916 -10.60224 -10.59578 -10.58710
 Alpha  occ. eigenvalues --  -10.58649 -10.58454 -10.57061 -10.56938 -10.56360
 Alpha  occ. eigenvalues --  -10.55983 -10.54485  -1.25198  -1.18253  -1.17902
 Alpha  occ. eigenvalues --   -1.15886  -1.15665  -1.13593  -1.05443  -0.93414
 Alpha  occ. eigenvalues --   -0.91485  -0.89900  -0.85224  -0.84082  -0.79943
 Alpha  occ. eigenvalues --   -0.77123  -0.74811  -0.73047  -0.70769  -0.70427
 Alpha  occ. eigenvalues --   -0.68566  -0.67148  -0.65743  -0.62222  -0.61302
 Alpha  occ. eigenvalues --   -0.59802  -0.58458  -0.57628  -0.55890  -0.55626
 Alpha  occ. eigenvalues --   -0.55102  -0.54549  -0.54175  -0.53397  -0.52390
 Alpha  occ. eigenvalues --   -0.52181  -0.50142  -0.49438  -0.49345  -0.48666
 Alpha  occ. eigenvalues --   -0.48280  -0.47490  -0.47200  -0.46354  -0.45757
 Alpha  occ. eigenvalues --   -0.45387  -0.45039  -0.44153  -0.44095  -0.42468
 Alpha  occ. eigenvalues --   -0.42005  -0.40511  -0.39278  -0.38327  -0.36366
 Alpha  occ. eigenvalues --   -0.34802  -0.34352  -0.34181  -0.32495  -0.31922
 Alpha  occ. eigenvalues --   -0.31258  -0.30270  -0.30136
 Alpha virt. eigenvalues --   -0.00744   0.03167   0.04588   0.08643   0.08823
 Alpha virt. eigenvalues --    0.09794   0.10940   0.11472   0.12285   0.13157
 Alpha virt. eigenvalues --    0.13353   0.13953   0.14941   0.15855   0.16209
 Alpha virt. eigenvalues --    0.16428   0.16686   0.17270   0.17938   0.18121
 Alpha virt. eigenvalues --    0.18793   0.19286   0.20093   0.20468   0.20969
 Alpha virt. eigenvalues --    0.21088   0.22136   0.22623   0.23242   0.23756
 Alpha virt. eigenvalues --    0.24499   0.24947   0.25730   0.26431   0.28012
 Alpha virt. eigenvalues --    0.28350   0.29175   0.30026   0.30454   0.31319
 Alpha virt. eigenvalues --    0.32121   0.34421   0.36604   0.38515   0.40021
 Alpha virt. eigenvalues --    0.40674   0.42457   0.43842   0.45849   0.47338
 Alpha virt. eigenvalues --    0.47703   0.48623   0.48893   0.49537   0.49880
 Alpha virt. eigenvalues --    0.51146   0.51402   0.51550   0.52133   0.52722
 Alpha virt. eigenvalues --    0.53866   0.54034   0.54698   0.55703   0.56567
 Alpha virt. eigenvalues --    0.56678   0.57298   0.58249   0.60014   0.60155
 Alpha virt. eigenvalues --    0.61525   0.62059   0.62492   0.63426   0.64239
 Alpha virt. eigenvalues --    0.64614   0.65987   0.66317   0.66526   0.66745
 Alpha virt. eigenvalues --    0.67449   0.67774   0.68156   0.68534   0.68981
 Alpha virt. eigenvalues --    0.69248   0.69484   0.70530   0.70649   0.71019
 Alpha virt. eigenvalues --    0.71341   0.72049   0.72393   0.72870   0.73421
 Alpha virt. eigenvalues --    0.73804   0.73897   0.74489   0.75171   0.75733
 Alpha virt. eigenvalues --    0.75982   0.76486   0.77345   0.79524   0.80180
 Alpha virt. eigenvalues --    0.80552   0.81742   0.82460   0.83995   0.85209
 Alpha virt. eigenvalues --    0.86620   0.87871   0.89661   0.91260   0.92135
 Alpha virt. eigenvalues --    0.94658   0.94984   0.96070   0.96645   0.97357
 Alpha virt. eigenvalues --    0.97807   1.00001   1.01024   1.02421   1.03770
 Alpha virt. eigenvalues --    1.04806   1.04926   1.05889   1.06674   1.08467
 Alpha virt. eigenvalues --    1.10336   1.11409   1.12017   1.13279   1.14638
 Alpha virt. eigenvalues --    1.14921   1.15570   1.17257   1.18163   1.20154
 Alpha virt. eigenvalues --    1.21054   1.21800   1.22350   1.23237   1.23602
 Alpha virt. eigenvalues --    1.24233   1.25604   1.25786   1.26379   1.26812
 Alpha virt. eigenvalues --    1.28174   1.29448   1.30113   1.31627   1.32113
 Alpha virt. eigenvalues --    1.33421   1.33753   1.34364   1.36435   1.37524
 Alpha virt. eigenvalues --    1.39309   1.40134   1.40949   1.42622   1.43497
 Alpha virt. eigenvalues --    1.44552   1.44907   1.45969   1.46219   1.47407
 Alpha virt. eigenvalues --    1.47797   1.49896   1.51026   1.52528   1.53025
 Alpha virt. eigenvalues --    1.55236   1.55690   1.57271   1.57652   1.58523
 Alpha virt. eigenvalues --    1.59404   1.61245   1.61495   1.62354   1.62802
 Alpha virt. eigenvalues --    1.63612   1.63672   1.63829   1.64273   1.65215
 Alpha virt. eigenvalues --    1.66300   1.66790   1.67301   1.68526   1.68766
 Alpha virt. eigenvalues --    1.69477   1.69855   1.70119   1.70631   1.71301
 Alpha virt. eigenvalues --    1.71660   1.72880   1.73325   1.73805   1.74539
 Alpha virt. eigenvalues --    1.74772   1.74870   1.76177   1.77039   1.77995
 Alpha virt. eigenvalues --    1.78204   1.79547   1.79979   1.80686   1.81601
 Alpha virt. eigenvalues --    1.82407   1.83041   1.83394   1.84504   1.84827
 Alpha virt. eigenvalues --    1.85108   1.85256   1.87257   1.87640   1.87901
 Alpha virt. eigenvalues --    1.88797   1.91074   1.91426   1.92966   1.93300
 Alpha virt. eigenvalues --    1.94339   1.95185   1.95844   1.96789   1.98174
 Alpha virt. eigenvalues --    1.99312   2.00637   2.01308   2.02618   2.03932
 Alpha virt. eigenvalues --    2.03988   2.04955   2.05597   2.06287   2.06990
 Alpha virt. eigenvalues --    2.08841   2.09368   2.10071   2.11315   2.12706
 Alpha virt. eigenvalues --    2.13259   2.15584   2.17055   2.18329   2.19806
 Alpha virt. eigenvalues --    2.20447   2.21505   2.22475   2.23080   2.24000
 Alpha virt. eigenvalues --    2.26204   2.27812   2.28975   2.29080   2.30429
 Alpha virt. eigenvalues --    2.32508   2.32963   2.34129   2.35991   2.37046
 Alpha virt. eigenvalues --    2.39662   2.41264   2.42476   2.43745   2.43949
 Alpha virt. eigenvalues --    2.44814   2.45737   2.46166   2.47044   2.47519
 Alpha virt. eigenvalues --    2.48284   2.49497   2.50191   2.51608   2.52390
 Alpha virt. eigenvalues --    2.53925   2.54576   2.54925   2.55666   2.56829
 Alpha virt. eigenvalues --    2.58174   2.59989   2.65015   2.66201   2.71965
 Alpha virt. eigenvalues --    2.73301   2.77731   2.78590   2.80892   2.83267
 Alpha virt. eigenvalues --    2.84652   2.96963   2.99368   3.01391   3.04760
 Alpha virt. eigenvalues --    3.05414   3.05701   3.06851   3.09238   3.09584
 Alpha virt. eigenvalues --    3.12505   3.13946   3.15443   3.15686   3.15936
 Alpha virt. eigenvalues --    3.21504   3.25070   3.26426   3.28498   3.31022
 Alpha virt. eigenvalues --    3.35743   3.36162   3.40141   3.43511   3.44914
 Alpha virt. eigenvalues --    3.48505   3.49217   3.57907   3.58372   3.75173
          Condensed to atoms (all electrons):
               1          2          3          4          5          6
     1  C    4.783768   0.459953  -0.036222   0.567835  -0.026972  -0.041588
     2  C    0.459953   4.825046  -0.205093  -0.034324   0.160801  -0.041063
     3  C   -0.036222  -0.205093   5.107682   0.425138  -0.028364   0.164307
     4  C    0.567835  -0.034324   0.425138   4.861281  -0.047515  -0.032167
     5  C   -0.026972   0.160801  -0.028364  -0.047515   5.155490   0.421621
     6  C   -0.041588  -0.041063   0.164307  -0.032167   0.421621   5.124756
     7  H   -0.040715   0.413851   0.000758   0.008271  -0.008976   0.003039
     8  H    0.406958  -0.038520   0.008329  -0.039257  -0.001836   0.000371
     9  H   -0.040682   0.009844  -0.037929   0.405463   0.000488  -0.001994
    10  O   -0.053006   0.381612   0.363978  -0.065042  -0.045421  -0.054237
    11  C   -0.008684  -0.021835   0.002218  -0.000943   0.332594  -0.045040
    12  C   -0.001462   0.003850  -0.022769  -0.009070  -0.041071   0.341492
    13  H    0.000903   0.000384  -0.010118   0.003752  -0.024717   0.376848
    14  H    0.000212  -0.004508  -0.000219   0.001236   0.383161  -0.020370
    15  N    0.001218  -0.002510  -0.004400   0.001970  -0.092484  -0.079414
    16  O    0.000267   0.000056  -0.002012  -0.002580   0.003881  -0.068582
    17  O   -0.002155  -0.000826   0.000089   0.000198  -0.067341   0.004183
    18  C   -0.000521  -0.000073  -0.000002  -0.000746   0.007798   0.008701
    19  H   -0.000166  -0.000066   0.000014  -0.000082   0.003879  -0.001281
    20  C    0.006132   0.003478   0.411108  -0.062939   0.005558  -0.011987
    21  H   -0.000249   0.000541  -0.018948   0.003613   0.000010  -0.007143
    22  H   -0.000233  -0.000028  -0.013511  -0.001113  -0.000087   0.003227
    23  O   -0.000131   0.000455  -0.036822   0.002302  -0.000432  -0.011593
    24  C    0.000008  -0.000009   0.006517  -0.000196   0.000035   0.000426
    25  H   -0.000002   0.000006   0.000473   0.000064  -0.000017  -0.000107
    26  H   -0.000000  -0.000000   0.001253   0.000004  -0.000000  -0.000080
    27  C    0.000018  -0.000009  -0.000011   0.000084  -0.000589  -0.000035
    28  H   -0.000000   0.000000   0.000000  -0.000000   0.000013  -0.000008
    29  H   -0.000003  -0.000001   0.000001  -0.000007  -0.000075   0.000611
    30  C   -0.000113   0.000070   0.000034  -0.000335  -0.000555  -0.000510
    31  H    0.000031  -0.000001  -0.000002   0.000063   0.000019  -0.000000
    32  H    0.000248   0.000009  -0.000003   0.000403  -0.000225   0.000011
    33  H    0.000009   0.000013  -0.000088  -0.000804  -0.000053   0.000413
    34  O    0.000000  -0.000000   0.000000   0.000000   0.000085  -0.000327
    35  C    0.000000   0.000000  -0.000000   0.000000   0.000005   0.000011
    36  H    0.000000  -0.000000   0.000000   0.000000   0.000004  -0.000025
    37  H    0.000000   0.000000   0.000000   0.000000   0.000001   0.000004
    38  H    0.000000  -0.000000  -0.000000   0.000000   0.000000  -0.000001
    39  C   -0.000000  -0.000001  -0.000103   0.000005  -0.000000   0.000013
    40  H    0.000000   0.000001   0.000075   0.000000   0.000003  -0.000234
    41  H   -0.000000   0.000001   0.000043   0.000002  -0.000003   0.000011
    42  O    0.000000   0.000000   0.000000  -0.000000  -0.000000   0.000000
    43  H   -0.000000  -0.000000  -0.000000   0.000000   0.000000   0.000000
               7          8          9         10         11         12
     1  C   -0.040715   0.406958  -0.040682  -0.053006  -0.008684  -0.001462
     2  C    0.413851  -0.038520   0.009844   0.381612  -0.021835   0.003850
     3  C    0.000758   0.008329  -0.037929   0.363978   0.002218  -0.022769
     4  C    0.008271  -0.039257   0.405463  -0.065042  -0.000943  -0.009070
     5  C   -0.008976  -0.001836   0.000488  -0.045421   0.332594  -0.041071
     6  C    0.003039   0.000371  -0.001994  -0.054237  -0.045040   0.341492
     7  H    0.617841  -0.002366  -0.000110  -0.018862  -0.000429  -0.000209
     8  H   -0.002366   0.631041  -0.005904   0.002916   0.005514  -0.000464
     9  H   -0.000110  -0.005904   0.638041   0.002926  -0.000555   0.005749
    10  O   -0.018862   0.002916   0.002926   7.692017   0.000973   0.000944
    11  C   -0.000429   0.005514  -0.000555   0.000973   4.506617  -0.074251
    12  C   -0.000209  -0.000464   0.005749   0.000944  -0.074251   4.548436
    13  H    0.000068   0.000028  -0.000176  -0.001030   0.005095  -0.023736
    14  H   -0.004828  -0.000177   0.000029  -0.001009  -0.022671   0.005612
    15  N   -0.000056  -0.001334  -0.001374   0.000126   0.336376   0.332540
    16  O    0.000001   0.000012   0.000386   0.000010  -0.000641   0.753168
    17  O    0.000575   0.001042   0.000004   0.000006   0.777107  -0.000879
    18  C   -0.000001   0.000172  -0.000166   0.000003  -0.039355  -0.062730
    19  H   -0.000004   0.000051   0.000009   0.000000  -0.007816   0.004361
    20  C   -0.000567  -0.000155  -0.002794  -0.030109  -0.000181  -0.001740
    21  H    0.000021  -0.000006   0.002726   0.002629   0.000022   0.003253
    22  H    0.000022   0.000001   0.000077  -0.001206   0.000002  -0.000097
    23  O    0.000019   0.000001  -0.000007   0.002115  -0.000003  -0.000507
    24  C   -0.000002  -0.000000   0.000001   0.000089   0.000000  -0.000031
    25  H    0.000000  -0.000000   0.000005  -0.000002   0.000000   0.000075
    26  H    0.000000   0.000000   0.000002  -0.000016  -0.000000  -0.000007
    27  C   -0.000000  -0.000001   0.000003   0.000000  -0.000712  -0.004550
    28  H    0.000000   0.000000   0.000000  -0.000000   0.000368   0.000871
    29  H   -0.000000  -0.000000  -0.000003  -0.000000  -0.000780  -0.000591
    30  C    0.000000   0.000044   0.001766  -0.000001   0.003019  -0.002487
    31  H   -0.000000  -0.000013  -0.000071   0.000000  -0.000051  -0.000001
    32  H    0.000001   0.000713   0.000819   0.000001   0.001055  -0.000390
    33  H   -0.000000  -0.000013   0.001182   0.000000  -0.000671   0.005869
    34  O   -0.000000   0.000000   0.000000   0.000000   0.006905   0.006674
    35  C    0.000000  -0.000000   0.000000   0.000000  -0.000074  -0.000113
    36  H   -0.000000  -0.000000  -0.000000  -0.000000   0.000014  -0.000429
    37  H    0.000000   0.000000  -0.000000  -0.000000  -0.000024   0.000011
    38  H   -0.000000   0.000000   0.000000   0.000000   0.000032   0.000071
    39  C    0.000000   0.000000   0.000000  -0.000004  -0.000000   0.000001
    40  H    0.000000   0.000000   0.000000   0.000001  -0.000000  -0.000005
    41  H    0.000000  -0.000000   0.000000   0.000008   0.000000   0.000001
    42  O    0.000000  -0.000000   0.000000   0.000000  -0.000000   0.000000
    43  H    0.000000   0.000000   0.000000   0.000000  -0.000000   0.000000
              13         14         15         16         17         18
     1  C    0.000903   0.000212   0.001218   0.000267  -0.002155  -0.000521
     2  C    0.000384  -0.004508  -0.002510   0.000056  -0.000826  -0.000073
     3  C   -0.010118  -0.000219  -0.004400  -0.002012   0.000089  -0.000002
     4  C    0.003752   0.001236   0.001970  -0.002580   0.000198  -0.000746
     5  C   -0.024717   0.383161  -0.092484   0.003881  -0.067341   0.007798
     6  C    0.376848  -0.020370  -0.079414  -0.068582   0.004183   0.008701
     7  H    0.000068  -0.004828  -0.000056   0.000001   0.000575  -0.000001
     8  H    0.000028  -0.000177  -0.001334   0.000012   0.001042   0.000172
     9  H   -0.000176   0.000029  -0.001374   0.000386   0.000004  -0.000166
    10  O   -0.001030  -0.001009   0.000126   0.000010   0.000006   0.000003
    11  C    0.005095  -0.022671   0.336376  -0.000641   0.777107  -0.039355
    12  C   -0.023736   0.005612   0.332540   0.753168  -0.000879  -0.062730
    13  H    0.618968  -0.006674   0.003590   0.001931  -0.000050  -0.000118
    14  H   -0.006674   0.622615   0.003912  -0.000061   0.001711  -0.000120
    15  N    0.003590   0.003912   6.771882  -0.079424  -0.081179   0.280653
    16  O    0.001931  -0.000061  -0.079424   7.634294  -0.000011   0.010096
    17  O   -0.000050   0.001711  -0.081179  -0.000011   7.595775  -0.001079
    18  C   -0.000118  -0.000120   0.280653   0.010096  -0.001079   4.814918
    19  H    0.000018  -0.000050  -0.033997  -0.000073   0.022515   0.378193
    20  C   -0.013544  -0.000070   0.000076  -0.000413   0.000001  -0.000008
    21  H   -0.000895  -0.000023   0.000144   0.007785   0.000000  -0.000008
    22  H    0.001774   0.000005  -0.000005   0.000012   0.000000  -0.000000
    23  O    0.028940  -0.000033  -0.000002  -0.000009   0.000000   0.000000
    24  C   -0.002117   0.000001  -0.000000  -0.000011   0.000000  -0.000000
    25  H   -0.000258  -0.000000   0.000000  -0.000027  -0.000000   0.000000
    26  H    0.000485   0.000000  -0.000000   0.000000   0.000000  -0.000000
    27  C    0.000031   0.000032  -0.047240  -0.006970  -0.000166   0.403845
    28  H   -0.000001  -0.000000   0.005182   0.000188  -0.000024  -0.029266
    29  H   -0.000010   0.000005  -0.010668   0.014351  -0.000037  -0.019948
    30  C    0.000003   0.000001  -0.039610  -0.007951  -0.000342   0.408454
    31  H    0.000000  -0.000000   0.004899   0.000085  -0.000013  -0.020909
    32  H    0.000003   0.000002  -0.000042  -0.000180   0.000049  -0.015317
    33  H   -0.000007   0.000001  -0.010535   0.012420  -0.000026  -0.015707
    34  O   -0.000001   0.000003  -0.003889  -0.000237  -0.000351  -0.048317
    35  C    0.000000  -0.000000   0.000304  -0.000034   0.000004   0.007264
    36  H   -0.000001  -0.000000  -0.000035   0.000018  -0.000001   0.000916
    37  H    0.000000  -0.000001   0.000064  -0.000004  -0.000000  -0.000505
    38  H   -0.000000   0.000000  -0.000001   0.000001  -0.000000  -0.000105
    39  C   -0.000356   0.000000   0.000000   0.000000   0.000000  -0.000000
    40  H    0.001271  -0.000001  -0.000000  -0.000000   0.000000  -0.000000
    41  H   -0.000057  -0.000000   0.000000  -0.000000  -0.000000  -0.000000
    42  O   -0.000000   0.000000  -0.000000  -0.000000  -0.000000   0.000000
    43  H   -0.000002   0.000000  -0.000000  -0.000000   0.000000   0.000000
              19         20         21         22         23         24
     1  C   -0.000166   0.006132  -0.000249  -0.000233  -0.000131   0.000008
     2  C   -0.000066   0.003478   0.000541  -0.000028   0.000455  -0.000009
     3  C    0.000014   0.411108  -0.018948  -0.013511  -0.036822   0.006517
     4  C   -0.000082  -0.062939   0.003613  -0.001113   0.002302  -0.000196
     5  C    0.003879   0.005558   0.000010  -0.000087  -0.000432   0.000035
     6  C   -0.001281  -0.011987  -0.007143   0.003227  -0.011593   0.000426
     7  H   -0.000004  -0.000567   0.000021   0.000022   0.000019  -0.000002
     8  H    0.000051  -0.000155  -0.000006   0.000001   0.000001  -0.000000
     9  H    0.000009  -0.002794   0.002726   0.000077  -0.000007   0.000001
    10  O    0.000000  -0.030109   0.002629  -0.001206   0.002115   0.000089
    11  C   -0.007816  -0.000181   0.000022   0.000002  -0.000003   0.000000
    12  C    0.004361  -0.001740   0.003253  -0.000097  -0.000507  -0.000031
    13  H    0.000018  -0.013544  -0.000895   0.001774   0.028940  -0.002117
    14  H   -0.000050  -0.000070  -0.000023   0.000005  -0.000033   0.000001
    15  N   -0.033997   0.000076   0.000144  -0.000005  -0.000002  -0.000000
    16  O   -0.000073  -0.000413   0.007785   0.000012  -0.000009  -0.000011
    17  O    0.022515   0.000001   0.000000   0.000000   0.000000   0.000000
    18  C    0.378193  -0.000008  -0.000008  -0.000000   0.000000  -0.000000
    19  H    0.644272  -0.000000   0.000000   0.000000  -0.000000  -0.000000
    20  C   -0.000000   4.469253   0.367363   0.367070   0.323513  -0.056221
    21  H    0.000000   0.367363   0.659137  -0.042106  -0.033338  -0.005383
    22  H    0.000000   0.367070  -0.042106   0.662321  -0.033241  -0.007143
    23  O   -0.000000   0.323513  -0.033338  -0.033241   7.886339   0.307542
    24  C   -0.000000  -0.056221  -0.005383  -0.007143   0.307542   4.569295
    25  H    0.000000  -0.003579   0.011259  -0.003351  -0.031704   0.375107
    26  H   -0.000000  -0.004365  -0.004388   0.012666  -0.031400   0.371742
    27  C   -0.030485  -0.000000  -0.000001  -0.000000  -0.000000   0.000000
    28  H   -0.011483  -0.000000  -0.000000   0.000000  -0.000000   0.000000
    29  H    0.008738  -0.000001  -0.000004  -0.000000   0.000000  -0.000000
    30  C   -0.025023  -0.000002   0.000001   0.000000  -0.000000  -0.000000
    31  H   -0.004755   0.000000  -0.000000  -0.000000   0.000000   0.000000
    32  H   -0.006990  -0.000002  -0.000007  -0.000000   0.000000  -0.000000
    33  H    0.006498  -0.000005   0.000016  -0.000002   0.000000  -0.000000
    34  O    0.003530  -0.000000   0.000000   0.000000  -0.000000  -0.000000
    35  C    0.000027  -0.000000  -0.000000  -0.000000   0.000000  -0.000000
    36  H    0.000169   0.000000   0.000000   0.000000  -0.000000   0.000000
    37  H    0.000011   0.000000   0.000000   0.000000  -0.000000  -0.000000
    38  H   -0.000232  -0.000000   0.000000  -0.000000  -0.000000  -0.000000
    39  C    0.000000   0.005989   0.000233   0.000381  -0.033351   0.425871
    40  H   -0.000000   0.000137  -0.000121   0.000061   0.004328  -0.030964
    41  H    0.000000  -0.000043   0.000103  -0.000110   0.006170  -0.032028
    42  O    0.000000  -0.000034  -0.000000  -0.000003   0.000496  -0.040164
    43  H   -0.000000   0.000004   0.000001   0.000000  -0.000131   0.005556
              25         26         27         28         29         30
     1  C   -0.000002  -0.000000   0.000018  -0.000000  -0.000003  -0.000113
     2  C    0.000006  -0.000000  -0.000009   0.000000  -0.000001   0.000070
     3  C    0.000473   0.001253  -0.000011   0.000000   0.000001   0.000034
     4  C    0.000064   0.000004   0.000084  -0.000000  -0.000007  -0.000335
     5  C   -0.000017  -0.000000  -0.000589   0.000013  -0.000075  -0.000555
     6  C   -0.000107  -0.000080  -0.000035  -0.000008   0.000611  -0.000510
     7  H    0.000000   0.000000  -0.000000   0.000000  -0.000000   0.000000
     8  H   -0.000000   0.000000  -0.000001   0.000000  -0.000000   0.000044
     9  H    0.000005   0.000002   0.000003   0.000000  -0.000003   0.001766
    10  O   -0.000002  -0.000016   0.000000  -0.000000  -0.000000  -0.000001
    11  C    0.000000  -0.000000  -0.000712   0.000368  -0.000780   0.003019
    12  C    0.000075  -0.000007  -0.004550   0.000871  -0.000591  -0.002487
    13  H   -0.000258   0.000485   0.000031  -0.000001  -0.000010   0.000003
    14  H   -0.000000   0.000000   0.000032  -0.000000   0.000005   0.000001
    15  N    0.000000  -0.000000  -0.047240   0.005182  -0.010668  -0.039610
    16  O   -0.000027   0.000000  -0.006970   0.000188   0.014351  -0.007951
    17  O   -0.000000   0.000000  -0.000166  -0.000024  -0.000037  -0.000342
    18  C    0.000000  -0.000000   0.403845  -0.029266  -0.019948   0.408454
    19  H    0.000000  -0.000000  -0.030485  -0.011483   0.008738  -0.025023
    20  C   -0.003579  -0.004365  -0.000000  -0.000000  -0.000001  -0.000002
    21  H    0.011259  -0.004388  -0.000001  -0.000000  -0.000004   0.000001
    22  H   -0.003351   0.012666  -0.000000   0.000000  -0.000000   0.000000
    23  O   -0.031704  -0.031400  -0.000000  -0.000000   0.000000  -0.000000
    24  C    0.375107   0.371742   0.000000   0.000000  -0.000000  -0.000000
    25  H    0.683389  -0.052595   0.000000   0.000000   0.000000   0.000000
    26  H   -0.052595   0.698779  -0.000000  -0.000000   0.000000   0.000000
    27  C    0.000000  -0.000000   4.563905   0.379141   0.374183  -0.057752
    28  H    0.000000  -0.000000   0.379141   0.705099  -0.046779   0.000922
    29  H    0.000000   0.000000   0.374183  -0.046779   0.670306  -0.001694
    30  C    0.000000   0.000000  -0.057752   0.000922  -0.001694   4.583877
    31  H    0.000000   0.000000  -0.001316   0.004550  -0.001073   0.386562
    32  H    0.000000   0.000000   0.006075  -0.000089  -0.000073   0.384219
    33  H   -0.000000  -0.000000  -0.008632  -0.000760   0.006067   0.390358
    34  O   -0.000000   0.000000   0.336446  -0.034734  -0.036784   0.002516
    35  C   -0.000000   0.000000  -0.061205  -0.004279  -0.006102  -0.000263
    36  H    0.000000  -0.000000  -0.005135  -0.004070   0.015120   0.000048
    37  H   -0.000000  -0.000000   0.006072  -0.000005   0.000113   0.000007
    38  H   -0.000000   0.000000  -0.006302   0.014290  -0.004408   0.000024
    39  C   -0.026077  -0.026173   0.000000   0.000000   0.000000  -0.000000
    40  H   -0.013653   0.011062  -0.000000  -0.000000  -0.000000   0.000000
    41  H    0.011613  -0.016054   0.000000   0.000000   0.000000   0.000000
    42  O    0.006229   0.004745  -0.000000   0.000000   0.000000  -0.000000
    43  H   -0.000243  -0.000224   0.000000   0.000000   0.000000  -0.000000
              31         32         33         34         35         36
     1  C    0.000031   0.000248   0.000009   0.000000   0.000000   0.000000
     2  C   -0.000001   0.000009   0.000013  -0.000000   0.000000  -0.000000
     3  C   -0.000002  -0.000003  -0.000088   0.000000  -0.000000   0.000000
     4  C    0.000063   0.000403  -0.000804   0.000000   0.000000   0.000000
     5  C    0.000019  -0.000225  -0.000053   0.000085   0.000005   0.000004
     6  C   -0.000000   0.000011   0.000413  -0.000327   0.000011  -0.000025
     7  H   -0.000000   0.000001  -0.000000  -0.000000   0.000000  -0.000000
[...]
 44,0.57578814,0.00001108,0.00000971,-0.00000693,-0.00002326,-0.0000006
 7,-0.00000956,-0.00000103,-0.00008669,-0.00008011,0.00001742,-0.000004
 91,0.00001566,-0.00000150,-0.00000849,-0.00000888,-0.00004037,0.000045
 41,0.00003615,-0.00000018,0.00000065,0.00000095,-0.00000041,-0.0000031
 8,0.00000002,-0.00000234,-0.00000266,-0.00000244,0.00001187,0.00001009
 ,0.00000074,0.00000741,-0.00000777,0.00000368,0.00000726,-0.00001804,-
 0.00000366,-0.00003310,-0.00001443,-0.00007363,0.00000206,-0.00000380,
 -0.00000060,-0.00001261,0.00000715,0.00000147,-0.00000408,0.00001129,0
 .00000344,-0.00000837,0.00000740,0.00000013,0.00000427,-0.00000124,-0.
 00000510,-0.00000006,0.00000027,-0.00000021,0.00015655,0.00019195,0.00
 025411,0.00002147,-0.00002028,-0.00003425,-0.00020040,-0.00006989,-0.0
 0005669,0.00165129,-0.00124721,-0.00056999,0.00887219,0.01197508,0.006
 93986,0.00073562,-0.00041507,-0.00073677,-0.00156554,0.00197163,0.0025
 7607,0.00000477,-0.00000567,-0.00001045,-0.00000298,-0.00000041,0.0000
 0161,-0.00000024,0.00000022,-0.00000008,-0.00000006,0.00000057,0.00000
 029,-0.00000104,-0.00000076,0.00000052,0.00000065,0.00000138,0.0000000
 3,0.00000072,-0.00000051,-0.00000103,-0.00000717,0.00001124,0.00001244
 ,0.00000739,-0.00001004,-0.00000186,-0.00000105,0.00000264,-0.00000432
 ,0.00000290,0.00000061,0.00000238,-0.00000399,0.00000158,0.00000150,-0
 .12772767,-0.10402138,-0.05119548,0.14894599,0.00002076,0.00003519,-0.
 00003224,-0.00005498,-0.00001307,0.00002409,-0.00010127,-0.00005014,-0
 .00007171,0.00007982,-0.00001232,0.00005247,-0.00000440,-0.00002375,0.
 00006840,0.00009361,-0.00005726,-0.00007647,0.00000194,-0.00000852,-0.
 00000226,0.00000067,-0.00001005,-0.00000005,-0.00001130,-0.00000353,-0
 .00000214,0.00011975,0.00006804,0.00002737,0.00001811,-0.00000200,0.00
 000143,0.00001254,0.00002292,-0.00000744,0.00024615,-0.00010447,-0.000
 06840,0.00002501,-0.00001675,0.00000646,-0.00005516,-0.00000556,0.0000
 2875,-0.00002044,0.00003579,0.00003395,-0.00002439,0.00000938,0.000003
 09,0.00001223,0.00000031,-0.00002268,-0.00000338,-0.00000010,0.0000012
 7,0.00015524,0.00003099,0.00013792,-0.00001997,-0.00000100,-0.00001344
 ,0.00000638,0.00016265,0.00017555,0.00033839,0.00090895,0.00061843,-0.
 00939449,-0.00991772,-0.00434549,0.00058566,0.00121850,0.00024267,0.00
 203746,0.00013104,-0.00223710,0.00000632,-0.00001015,-0.00001738,-0.00
 000580,-0.00000147,0.00000271,0.00000144,0.00000122,-0.00000129,-0.000
 00146,-0.00000097,-0.00000008,-0.00000156,-0.00000031,0.00000235,-0.00
 000018,0.00000373,-0.00000035,0.00000151,-0.00000253,-0.00000210,-0.00
 001396,0.00001138,0.00002273,0.00001028,-0.00000770,-0.00000324,-0.000
 00039,0.00000423,-0.00000588,0.00000497,0.00000193,0.00000372,-0.00000
 669,0.00000191,0.00000281,-0.10579504,-0.19031225,-0.07156959,0.110955
 43,0.19577513,0.00001117,0.00000938,-0.00001232,-0.00000195,-0.0000083
 8,0.00002056,-0.00000096,0.00005202,-0.00003139,0.00003720,-0.00000732
 ,0.00003563,0.00000020,-0.00001375,0.00003833,0.00007784,0.00001822,-0
 .00005399,0.00000259,-0.00000535,-0.00000112,0.00000083,-0.00000607,0.
 00000156,-0.00000726,-0.00000267,-0.00000129,0.00005011,0.00004014,0.0
 0001025,-0.00001008,-0.00003074,0.00003592,0.00005528,-0.00012626,0.00
 011467,0.00008499,-0.00012040,0.00002975,0.00000450,0.00000478,-0.0000
 0049,-0.00003890,0.00003974,-0.00003673,-0.00006450,0.00011455,-0.0000
 4868,-0.00001243,0.00001580,-0.00001400,0.00000221,-0.00000270,-0.0000
 1138,-0.00000125,0.00000069,0.00000088,0.00013062,0.00002361,-0.000002
 43,-0.00002086,-0.00000466,-0.00004309,-0.00001341,0.00022947,0.000161
 29,-0.00016015,0.00155282,0.00129660,-0.01615292,-0.02235455,-0.011888
 96,-0.00076111,0.00048241,0.00095090,0.00251875,-0.00228219,-0.0038458
 6,0.00001259,-0.00001212,-0.00000327,-0.00000455,0.00000085,0.00000093
 ,-0.00000023,0.00000208,-0.00000269,0.00000187,-0.00000035,0.00000078,
 -0.00000046,-0.00000031,0.00000051,-0.00000107,0.00000379,-0.00000012,
 0.00000039,-0.00000295,-0.00000215,-0.00001188,0.00001759,0.00000616,0
 .00001448,-0.00001617,0.00000665,-0.00000252,0.00000548,-0.00000654,0.
 00000168,0.00000085,0.00000097,-0.00000580,0.00000231,0.00000025,-0.05
 063661,-0.06647517,-0.08811450,0.06420067,0.07677260,0.09539004,0.0000
 1284,0.00001651,-0.00000483,-0.00006818,0.00002497,-0.00001815,0.00005
 796,-0.00004730,0.00004856,0.00000371,-0.00000177,-0.00002756,0.000000
 26,0.00000321,0.00001221,0.00001887,0.00003171,-0.00002700,-0.00000585
 ,0.00000763,0.00000277,0.00000083,0.00000133,-0.00000250,0.00000597,-0
 .00000400,-0.00000298,0.00001961,0.00003562,-0.00007318,-0.00000998,-0
 .00003160,0.00003549,0.00006952,-0.00011348,0.00010815,-0.00000225,-0.
 00005610,0.00006122,-0.00002015,0.00000129,-0.00000858,-0.00002084,0.0
 0004868,-0.00005423,-0.00005899,0.00007503,-0.00007088,-0.00001105,0.0
 0001671,-0.00001946,-0.00000014,0.00000058,-0.00000176,-0.00000012,0.0
 0000021,-0.00000013,-0.00020340,0.00003130,0.00006805,0.00007359,0.000
 09510,-0.00019143,0.00002378,-0.00004916,-0.00003033,0.00129198,-0.000
 27386,-0.00084676,-0.00225813,-0.01217910,0.01049982,-0.00137051,0.002
 20459,0.00238690,0.00071709,0.00055535,-0.00076563,0.00000895,-0.00000
 430,0.00000480,-0.00000233,0.00000087,-0.00000027,-0.00000024,0.000002
 11,-0.00000184,0.00000246,-0.00000116,0.00000132,-0.00000082,-0.000000
 32,-0.00000041,0.00000005,0.00000085,0.00000005,0.00000039,0.00000007,
 -0.00000136,-0.00000647,0.00000380,-0.00000499,0.00000786,-0.00000431,
 0.00000535,-0.00000149,0.00000244,-0.00000283,0.00000038,-0.00000024,-
 0.00000061,-0.00000284,0.00000060,0.00000006,-0.05929037,-0.03691074,0
 .03473561,-0.00069695,-0.01232538,0.01188067,0.06531351,-0.00000105,0.
 00001719,-0.00000210,-0.00005573,0.00000566,0.00001023,-0.00005139,-0.
 00004915,0.00017024,-0.00001354,0.00001028,-0.00004293,0.00000061,-0.0
 0000109,0.00002122,0.00003378,0.00003250,-0.00003292,-0.00000239,0.000
 00749,0.00000461,0.00000029,0.00000151,-0.00000216,0.00000168,-0.00000
 038,-0.00000061,0.00006443,0.00000316,-0.00003210,-0.00001706,-0.00003
 545,0.00003743,0.00004290,-0.00009549,0.00008514,0.00002020,-0.0000630
 1,0.00005786,-0.00001941,0.00000202,-0.00000631,-0.00000818,0.00004323
 ,-0.00005176,-0.00003392,0.00007867,-0.00005133,-0.00000563,0.00001732
 ,-0.00002068,-0.00000905,-0.00000327,0.00000131,0.00000016,0.00000023,
 0.00000042,-0.00003320,0.00012944,-0.00030246,0.00004096,-0.00014026,0
 .00003338,-0.00001129,0.00002141,0.00000950,-0.00153713,0.00084391,0.0
 0052152,0.00344125,0.00917378,-0.01069959,0.00210143,-0.00018682,-0.00
 236174,-0.00037293,0.00117642,0.00048817,0.00000967,-0.00000815,0.0000
 0094,-0.00000091,0.00000183,0.00000038,-0.00000172,0.00000120,-0.00000
 149,0.00000336,0.00000059,-0.00000029,0.00000102,-0.00000040,-0.000000
 91,-0.00000067,0.00000192,0.00000074,-0.00000105,-0.00000114,-0.000000
 25,-0.00000596,0.00001751,-0.00000179,0.00000972,-0.00001726,0.0000069
 4,-0.00000295,0.00000391,-0.00000520,0.00000070,-0.00000022,0.00000024
 ,-0.00000267,0.00000201,-0.00000060,-0.03626190,-0.18341592,0.12103014
 ,-0.00654750,-0.01536324,0.01579442,0.02945201,0.19491632,-0.00001216,
 -0.00002568,0.00000305,0.00010003,-0.00002244,0.00003659,-0.00006136,0
 .00002281,-0.00010022,0.00001358,0.00000464,0.00003938,-0.00000557,-0.
 00000712,0.00000201,-0.00001582,-0.00002632,-0.00000640,0.00000996,-0.
 00000696,-0.00000149,0.00000099,-0.00000151,0.00000385,-0.00000967,0.0
 0000482,0.00000265,-0.00002949,-0.00006258,0.00007841,0.00000798,0.000
 03090,-0.00004102,-0.00005274,0.00009228,-0.00009938,0.00001031,-0.000
 01258,-0.00003060,0.00001479,0.00000332,0.00000791,0.00001939,-0.00004
 731,0.00005268,0.00005114,-0.00005265,0.00008222,0.00001097,-0.0000179
 5,0.00002041,0.00000349,-0.00000105,-0.00000149,0.00000003,0.00000031,
 0.00000059,0.00009081,-0.00020155,0.00017360,-0.00025514,0.00000300,0.
 00020988,-0.00000967,0.00003843,-0.00004396,-0.00109610,-0.00045238,0.
 00192437,0.00623323,0.02161805,-0.02055523,0.00236840,-0.00253255,-0.0
 0372173,-0.00069670,0.00020382,0.00092118,-0.00000634,0.00000155,-0.00
 001044,0.00000041,-0.00000079,0.00000080,0.00000100,-0.00000200,0.0000
 0084,-0.00000341,0.00000257,-0.00000142,0.00000020,0.00000027,0.000000
 69,0.,-0.00000060,0.00000006,0.00000008,-0.00000066,0.00000027,0.00000
 212,-0.00000029,0.00001122,-0.00000361,0.00000069,-0.00000442,0.000001
 68,-0.00000042,0.00000004,0.00000092,0.00000053,0.00000167,0.00000007,
 0.00000042,0.00000025,0.03091426,0.11775949,-0.16460731,-0.00202727,-0
 .00902573,0.00876661,-0.02830575,-0.13525187,0.18110638,-0.00017826,0.
 00019642,0.00006550,0.00015512,-0.00000414,0.00007014,0.00029188,0.000
 08155,0.00077157,-0.00022091,0.00010450,-0.00035395,-0.00031301,-0.000
 15508,0.00015056,-0.00000403,-0.00012631,0.00009404,-0.00001628,0.0000
 0736,-0.00000040,-0.00002841,0.00000488,-0.00003302,0.00003218,-0.0000
 3500,-0.00002231,-0.00044271,0.00008634,-0.00005448,0.00068834,-0.0000
 2093,0.00000761,0.00074393,0.00016895,-0.00017918,0.00044024,0.0000426
 3,0.00010905,0.00001937,-0.00001513,0.00001937,-0.00063897,0.00002734,
 0.00009072,-0.00037356,-0.00011935,0.00013420,-0.00053827,0.00012301,-
 0.00012267,0.00028325,0.00010527,-0.00017021,-0.00002409,0.00000705,-0
 .00000199,0.00073027,-0.00090466,-0.00301553,-0.00016673,-0.00003504,0
 .00033489,-0.00013386,0.00038130,0.00036660,-0.00504084,0.00465307,0.0
 0769526,-0.02896083,0.01348644,-0.01138885,0.00113725,-0.00158341,-0.0
 0106757,0.00137928,0.00030106,-0.00017785,0.00005199,0.00004271,0.0000
 6541,-0.00006174,-0.00003600,-0.00000477,0.00002548,0.00002491,-0.0000
 2523,-0.00004720,-0.00002788,0.00003493,-0.00004668,-0.00001365,0.0000
 2988,0.00003164,-0.00001235,-0.00002265,0.00002934,0.00001628,-0.00003
 792,-0.00011339,-0.00019277,-0.00004903,0.00007235,0.00017620,0.000034
 54,0.00000370,-0.00000146,-0.00000737,0.00001340,-0.00000359,-0.000013
 04,-0.00004535,-0.00002074,0.00001958,-0.22053968,0.06480393,-0.076173
 75,-0.03095648,0.01410065,-0.01202896,-0.00542158,0.00982179,-0.006937
 05,0.42212620,0.00014258,-0.00002831,-0.00009103,-0.00023843,0.0000004
 3,-0.00001892,-0.00026514,-0.00024733,-0.00047448,0.00022297,-0.000087
 70,0.00023851,0.00019160,0.00005057,-0.00000900,0.00011176,0.00012538,
 -0.00012572,0.00000203,-0.00000530,0.00000221,0.00001551,-0.00001810,0
 .00001757,-0.00002780,0.00000489,0.00000321,0.00042548,0.00008758,-0.0
 0001350,-0.00038878,-0.00008047,0.00009574,-0.00030822,-0.00032067,0.0
 0030703,-0.00013957,-0.00017010,-0.00011061,-0.00000600,-0.00000837,-0
 .00001508,0.00026393,0.00008640,-0.00013366,0.00010382,0.00029031,-0.0
 0018493,0.00025648,-0.00001212,0.00002961,-0.00015741,-0.00006887,0.00
 006839,0.00001126,-0.00000299,0.00000173,0.00002035,0.00088926,0.00181
 984,0.00020804,-0.00003854,-0.00030513,-0.00001689,-0.00013439,-0.0001
 0291,0.00480861,-0.00239311,-0.00543601,0.02082708,-0.00788173,0.00847
 972,0.00009346,0.00060922,-0.00074378,-0.00119630,0.00093636,0.0020737
 0,0.00000626,-0.00005964,-0.00006150,0.00002244,0.00002155,0.00000827,
 -0.00001751,-0.00000940,0.00001011,0.00003350,0.00001493,-0.00001866,0
 .00002480,0.00000488,-0.00001550,-0.00001824,0.00001755,0.00001307,-0.
 00001582,-0.00001508,0.00001749,0.00002741,0.00017197,0.00005997,0.000
 00141,-0.00015620,-0.00001063,-0.00001128,0.00001598,-0.00001714,0.000
 00199,0.00000459,0.00001391,0.00000830,0.00001923,-0.00000713,0.073351
 86,-0.09685645,0.02736089,-0.01164848,0.01613753,-0.00438334,0.0298776
 3,-0.00700446,0.00892748,-0.21930086,0.19167888,0.00007650,-0.00002205
 ,-0.00006964,0.00008247,-0.00002138,0.00003728,0.00000718,-0.00011494,
 -0.00086129,0.00021014,-0.00010875,0.00025994,0.00003400,-0.00003369,0
 .00002748,0.00001549,-0.00001998,-0.00004170,0.00001680,-0.00002519,-0
 .00000729,0.00000853,-0.00002137,0.00001691,-0.00003159,0.00000291,-0.
 00000112,0.00000919,0.00003089,0.00014888,-0.00004103,0.00003878,-0.00
 004862,-0.00011632,0.00006910,-0.00008621,0.00002165,-0.00008518,-0.00
 018384,0.00005315,-0.00000582,0.00001506,0.00002298,-0.00006032,0.0000
 8660,0.00005711,-0.00000450,0.00009948,0.00004567,-0.00002602,0.000048
 20,-0.00000224,-0.00001135,-0.00001181,-0.00000049,-0.00000023,0.00000
 121,0.00101559,-0.00027393,0.00153607,-0.00001855,0.00008027,-0.000099
 62,-0.00004317,-0.00011185,-0.00010912,0.00709674,-0.00507820,-0.00552
 126,0.02515415,-0.01047889,0.01416391,-0.00096908,0.00074056,0.0021958
 9,-0.00053825,0.00081341,0.00181348,-0.00000484,-0.00001388,-0.0000431
 1,-0.00000231,0.00000035,0.00000495,0.00000127,-0.00000307,0.00000232,
 -0.00000102,0.00000362,-0.00000412,0.00000133,0.00000137,0.00000081,-0
 .00000303,0.00000463,0.00000176,0.00000040,-0.00000460,0.00000090,-0.0
 0000492,0.00002727,0.00005006,0.00000166,-0.00002099,-0.00001602,0.000
 00226,0.00000467,-0.00000614,0.00000670,0.00000364,0.00000849,-0.00000
 518,0.00000473,0.00000281,-0.03853055,0.00766753,-0.11982985,-0.018037
 75,0.00909356,-0.00286912,-0.02836660,0.00965718,-0.00451276,-0.094309
 62,0.14287410,0.45911845,-0.00000879,-0.00003562,0.00001936,-0.0000160
 4,0.00000028,-0.00002118,-0.00007787,0.00007476,0.00018548,-0.00002982
 ,0.00002387,-0.00002795,0.00002934,0.00003541,-0.00003398,-0.00000639,
 0.00000847,0.00001410,-0.00000024,0.00000332,0.00000084,0.00000191,0.0
 0000801,-0.00000080,-0.00000006,0.00000745,0.00000501,0.00004777,-0.00
 004460,-0.00000471,-0.00008767,0.00002420,-0.00002377,-0.00011066,0.00
 003969,-0.00002922,-0.00005260,0.00002136,0.00001840,-0.00001141,0.000
 00576,-0.00000395,0.00010409,-0.00002546,0.00000262,0.00006948,-0.0000
 4427,0.00001037,0.00007710,-0.00002787,0.00002117,-0.00003759,-0.00000
 984,0.00002857,0.00000317,-0.00000132,0.00000061,-0.00037592,0.0002370
 0,-0.00026849,-0.00000740,-0.00001288,0.00000404,-0.00000870,0.0000140
 8,0.00000420,-0.00066725,0.00097237,0.00177562,-0.00499939,0.00141066,
 -0.00499442,0.00016318,-0.00029098,-0.00022876,0.00027905,0.00007395,-
 0.00009667,-0.00001753,0.00000469,0.00000132,0.00001202,0.00000437,-0.
 00000146,-0.00000245,-0.00000430,0.00000409,0.00000375,0.00000369,-0.0
 0000434,0.00000653,0.00000251,-0.00000439,-0.00000389,-0.00000127,0.00
 000252,-0.00000392,-0.00000060,0.00000551,0.00002646,0.00000739,-0.000
 00570,-0.00002264,-0.00000694,-0.00000543,0.00000200,-0.00000437,0.000
 00755,-0.00000536,-0.00000060,-0.00000072,0.00001189,0.00000031,-0.000
 00441,-0.02116438,0.01728558,0.03166473,0.00082996,-0.00099408,0.00084
 924,0.00182312,-0.00004874,-0.00032800,-0.13394234,0.10269616,0.147085
 59,0.15816951,-0.00001147,-0.00001335,0.00001209,0.00007926,0.00000258
 ,0.00000390,0.00009328,0.00003183,-0.00011598,-0.00002556,-0.00001199,
 0.00000340,-0.00003712,-0.00000855,-0.00000406,-0.00002896,-0.00003881
 ,0.00001964,0.00000429,-0.00000210,-0.00000171,0.00000014,0.00000310,0
 .00000179,0.00000286,0.00000219,0.00000105,-0.00010763,-0.00003196,0.0
 0002856,0.00007007,0.00003441,-0.00003700,0.00003742,0.00009148,-0.000
 08343,0.00002443,0.00002819,0.00000197,0.00000754,0.00000550,0.0000050
 7,-0.00004028,-0.00003652,0.00004399,-0.00000819,-0.00008043,0.0000519
 9,-0.00003880,-0.00001030,0.00000447,0.00003122,0.00001567,-0.00001079
 ,-0.00000216,0.00000041,-0.00000042,0.00025360,0.00004792,0.00010040,0
 .00000717,-0.00001484,0.00001010,-0.00003334,-0.00000543,-0.00000571,0
 .00043873,0.00016920,-0.00083789,0.00186858,-0.00095123,0.00245255,-0.
 00002825,0.00011736,-0.00013548,-0.00012808,0.00017256,0.00037721,-0.0
 0000689,0.00001797,0.00001827,-0.00000277,-0.00000435,-0.00000277,0.00
 000458,0.00000137,-0.00000156,-0.00000733,-0.00000374,0.00000338,-0.00
 000451,0.00000009,0.00000311,0.00000282,-0.00000505,-0.00000256,0.0000
 0299,0.00000359,-0.00000261,-0.00000024,-0.00005066,-0.00001906,-0.000
 00744,0.00004626,0.00000107,0.00000459,-0.00000567,0.00000791,-0.00000
 216,-0.00000072,-0.00000447,0.00000077,-0.00000542,0.00000101,0.006706
 38,-0.00823898,-0.01386020,-0.00106525,0.00136405,0.00067185,-0.000487
 40,-0.00012380,-0.00096240,0.11384470,-0.09556818,-0.15457238,-0.12141
 159,0.10305633,-0.00000932,0.00001251,0.00000695,-0.00000429,0.0000037
 7,0.00000305,0.00001240,-0.00000802,0.00005733,-0.00003207,0.00000885,
 -0.00003450,-0.00001357,-0.00000471,0.00000700,0.00000725,-0.00000282,
 -0.00000079,-0.00000282,0.00000429,0.00000195,-0.00000140,0.00000208,-
 0.00000112,0.00000447,-0.00000137,-0.00000067,-0.00001715,0.00001443,-
 0.00002985,0.00002708,-0.00001845,0.00002352,0.00004721,-0.00002976,0.
 00003488,0.00002085,-0.00000194,0.00001845,-0.00000706,0.00000179,-0.0
 0000072,-0.00002925,0.00002141,-0.00002449,-0.00002891,0.00002074,-0.0
 0002811,-0.00002785,0.00001324,-0.00001955,0.00000545,0.00000416,-0.00
 000272,-0.00000078,0.00000034,-0.00000004,-0.00021303,0.00008425,0.000
 03638,-0.00001005,0.00000457,0.00001123,-0.00000619,0.00001617,0.00000
 907,-0.00085104,0.00049658,0.00055772,-0.00184348,0.00082305,-0.000510
 39,-0.00025246,-0.00006996,0.00020069,-0.00000940,0.00028890,0.0000701
 9,0.00000524,0.00000177,0.00001346,-0.00000125,-0.00000063,-0.00000120
 ,-0.00000027,0.00000166,-0.00000175,-0.00000014,-0.00000180,0.00000155
 ,-0.00000088,-0.00000060,0.00000066,0.00000092,-0.00000047,-0.00000079
 ,0.00000012,0.00000071,-0.00000106,-0.00000407,-0.00000686,-0.00001494
 ,0.00000485,0.00000512,0.00000813,-0.00000150,0.00000003,-0.00000025,-
 0.00000116,-0.00000078,-0.00000265,-0.00000073,-0.00000121,-0.00000038
 ,-0.01504110,0.01050740,0.01021962,-0.00118463,0.00018269,0.00012090,-
 0.00102098,0.00093707,0.00029026,0.19610356,-0.18014389,-0.34531830,-0
 .17562255,0.16683567,0.33430131\\0.00000011,0.00000020,0.00000090,-0.0
 0000049,-0.00000008,0.00000077,0.00000035,-0.00000016,0.00000039,-0.00
 000020,-0.00000081,0.00000058,-0.00000006,0.00000053,0.00000026,0.0000
 0012,0.00000015,-0.00000032,-0.00000008,0.00000055,0.00000103,0.000000
 03,-0.00000023,0.00000090,-0.00000013,-0.00000067,0.00000052,0.0000002
 7,0.00000073,0.00000076,-0.00000003,0.00000020,-0.00000004,-0.00000001
 ,-0.00000013,-0.00000013,0.00000008,0.00000022,0.00000021,0.00000010,0
 .00000078,0.00000047,0.00000014,0.00000072,0.00000025,0.00000009,-0.00
 000016,-0.00000037,0.00000008,0.00000036,0.00000032,-0.00000013,-0.000
 00048,-0.00000026,0.,-0.00000005,0.00000005,0.00000017,-0.00000124,-0.
 00000003,-0.00000039,-0.00000053,0.00000043,0.00000069,-0.00000049,0.0
 0000063,0.00000169,0.00000086,0.00000115,-0.00000098,-0.00000048,-0.00
 000377,0.00000043,-0.00000013,0.00000127,0.00000005,0.00000050,0.00000
 097,-0.00000002,-0.00000017,-0.00000060,0.,-0.00000031,-0.00000072,0.,
 -0.00000031,-0.00000069,0.00000002,-0.00000067,-0.00000002,-0.00000005
 ,-0.00000077,-0.00000016,-0.00000004,-0.00000064,0.00000032,-0.0000000
 9,-0.00000069,-0.00000012,0.00000001,0.00000023,-0.00000071,0.00000015
 ,0.00000025,-0.00000108,0.00000006,0.00000011,-0.00000126,0.00000008,0
 .00000057,-0.00000109,0.00000007,0.00000016,-0.00000119,-0.00000624,0.
 00000121,-0.00000082,0.00000086,-0.00000006,-0.00000054,-0.00000049,0.
 00000097,0.00000013,0.00000212,-0.00000046,0.00000170,0.00000166,0.000
 00042,-0.00000012\\\@


 LORD, MAN... WERE YE BUT WHYLES WHERE I AM, 
 THE GENTILES YE WAD NE'ER ENVY 'EM.        
 IT'S TRUE, THEY NEEDNA STARVE OR SWEAT,     
 THRO' WINTER'S CAULD OR SIMMER'S HEAT...  
 THEY'VE NAE SAIR WARK TO CRAZE THEIR BANES, 
 AND FILL AULD AGE WITH GRIPS AN' GRANES...  
                                             
 BUT HUMAN BODIES ARE SIC FOOLS              
 FOR A' THEIR COLLEGES AND SCHOOLS,           
 THAT WHEN NAE REAL ILLS PERPLEX THEM,       
 THEY MAK ENOW THEMSELVES TO VEX THEM,       
 AN' AYE THE LESS THEY HAE TO STURT THEM,    
 IN LIKE PROPORTION LESS WILL HURT THEM....  
                                             
                (ROBERT BURNS 'THE TWA DOGS')
 Job cpu time:       0 days  3 hours 12 minutes 57.4 seconds.
 Elapsed time:       0 days  0 hours 24 minutes 18.3 seconds.
 File lengths (MBytes):  RWF=    815 Int=      0 D2E=      0 Chk=     20 Scr=      1
 Normal termination of Gaussian 16 at Thu Oct  2 10:59:26 2025.
