 Entering Gaussian System, Link 0=g16
 Initial command:
 /apps/brussel/RL8/zen4/software/Gaussian/G16.A.03-intel-2022a/g16/l1.exe "/tmp/9187994/Gau-910058.inp" -scrdir="/tmp/9187994/"
 Entering Link 1 = /apps/brussel/RL8/zen4/software/Gaussian/G16.A.03-intel-2022a/g16/l1.exe.bin PID=    910059.
  
 Copyright (c) 1988,1990,1992,1993,1995,1998,2003,2009,2016,
            Gaussian, Inc.  All Rights Reserved.
  
 This is part of the Gaussian(R) 16 program.  It is based on
 the Gaussian(R) 09 system (copyright 2009, Gaussian, Inc.),
 the Gaussian(R) 03 system (copyright 2003, Gaussian, Inc.),
 the Gaussian(R) 98 system (copyright 1998, Gaussian, Inc.),
 the Gaussian(R) 94 system (copyright 1995, Gaussian, Inc.),
 the Gaussian 92(TM) system (copyright 1992, Gaussian, Inc.),
 the Gaussian 90(TM) system (copyright 1990, Gaussian, Inc.),
 the Gaussian 88(TM) system (copyright 1988, Gaussian, Inc.),
 the Gaussian 86(TM) system (copyright 1986, Carnegie Mellon
 University), and the Gaussian 82(TM) system (copyright 1983,
 Carnegie Mellon University). Gaussian is a federally registered
 trademark of Gaussian, Inc.
  
 This software contains proprietary and confidential information,
 including trade secrets, belonging to Gaussian, Inc.
  
 This software is provided under written license and may be
 used, copied, transmitted, or stored only in accord with that
 written license.
  
 The following legend is applicable only to US Government
 contracts under FAR:
  
                    RESTRICTED RIGHTS LEGEND
  
 Use, reproduction and disclosure by the US Government is
 subject to restrictions as set forth in subparagraphs (a)
 and (c) of the Commercial Computer Software - Restricted
 Rights clause in FAR 52.227-19.
  
 Gaussian, Inc.
 340 Quinnipiac St., Bldg. 40, Wallingford CT 06492
  
  
 ---------------------------------------------------------------
 Warning -- This program may not be used in any manner that
 competes with the business of Gaussian, Inc. or will provide
 assistance to any competitor of Gaussian, Inc.  The licensee
 of this program is prohibited from giving any competitor of
 Gaussian, Inc. access to this program.  By using this program,
 the user acknowledges that Gaussian, Inc. is engaged in the
 business of creating and licensing software in the field of
 computational chemistry and represents and warrants to the
 licensee that it is not a competitor of Gaussian, Inc. and that
 it will not use this program in any manner prohibited above.
 ---------------------------------------------------------------
  

 Cite this work as:
 Gaussian 16, Revision A.03,
 M. J. Frisch, G. W. Trucks, H. B. Schlegel, G. E. Scuseria, 
 M. A. Robb, J. R. Cheeseman, G. Scalmani, V. Barone, 
 G. A. Petersson, H. Nakatsuji, X. Li, M. Caricato, A. V. Marenich, 
 J. Bloino, B. G. Janesko, R. Gomperts, B. Mennucci, H. P. Hratchian, 
 J. V. Ortiz, A. F. Izmaylov, J. L. Sonnenberg, D. Williams-Young, 
 F. Ding, F. Lipparini, F. Egidi, J. Goings, B. Peng, A. Petrone, 
 T. Henderson, D. Ranasinghe, V. G. Zakrzewski, J. Gao, N. Rega, 
 G. Zheng, W. Liang, M. Hada, M. Ehara, K. Toyota, R. Fukuda, 
 J. Hasegawa, M. Ishida, T. Nakajima, Y. Honda, O. Kitao, H. Nakai, 
 T. Vreven, K. Throssell, J. A. Montgomery, Jr., J. E. Peralta, 
 F. Ogliaro, M. J. Bearpark, J. J. Heyd, E. N. Brothers, K. N. Kudin, 
 V. N. Staroverov, T. A. Keith, R. Kobayashi, J. Normand, 
 K. Raghavachari, A. P. Rendell, J. C. Burant, S. S. Iyengar, 
 J. Tomasi, M. Cossi, J. M. Millam, M. Klene, C. Adamo, R. Cammi, 
 J. W. Ochterski, R. L. Martin, K. Morokuma, O. Farkas, 
 J. B. Foresman, and D. J. Fox, Gaussian, Inc., Wallingford CT, 2016.
 
 ******************************************
 Gaussian 16:  AS64L-G16RevA.03 25-Dec-2016
                 8-May-2024 
 ******************************************
 %mem=32GB
 %nprocshared=8
 Will use up to    8 processors via shared memory.
 %chk=FM_C1-A_TSEndo_optfreq_CREST.chk
 ----------------------------------------------------------------------
 # opt=(calcfc,ts,noeigentest) freq cc-pvdz empiricaldispersion=gd3 m06
 2x
 ----------------------------------------------------------------------
 1/5=1,10=4,11=1,18=20,26=3,38=1/1,3;
 2/9=110,12=2,17=6,18=5,40=1/2;
 3/5=16,11=2,25=1,30=1,71=2,74=-55,124=31,140=1/1,2,3;
 4//1;
 5/5=2,38=5/2;
 8/6=4,10=90,11=11/1;
 11/6=1,8=1,9=11,15=111,16=1/1,2,10;
 10/6=1,13=1/2;
 6/7=2,8=2,9=2,10=2,28=1/1;
 7/10=1,18=20,25=1/1,2,3,16;
 1/5=1,10=4,11=1,18=20,26=3/3(2);
 2/9=110/2;
 99//99;
 2/9=110/2;
 3/5=16,11=2,25=1,30=1,71=1,74=-55,124=31/1,2,3;
 4/5=5,16=3,69=1/1;
 5/5=2,38=5/2;
 7//1,2,3,16;
 1/5=1,11=1,18=20,26=3/3(-5);
 2/9=110/2;
 6/7=2,8=2,9=2,10=2,19=2,28=1/1;
 99/9=1/99;
 --------------------
 FuranMaleimideTSEndo
 --------------------
 Symbolic Z-matrix:
 Charge =  0 Multiplicity = 1
 C                     2.04171  -0.07538   0.99226 
 C                     0.97025  -0.90038   0.8862 
 C                    -0.44597   0.2952   -0.18298 
 C                     0.25015   0.40986  -1.38038 
 C                     1.27552   1.32494  -1.16752 
 H                     0.04139  -0.13118  -2.28772 
 H                     2.0363    1.6153   -1.87319 
 C                     1.17526   1.72556   0.15136 
 H                     1.80662   2.47725   0.62092 
 C                     3.10866  -0.60754   0.13232 
 C                     1.30926  -1.98885  -0.04177 
 O                     0.57518  -2.89472  -0.37146 
 O                     4.2096   -0.1262   -0.023 
 H                     2.19427   0.66408   1.7682 
 H                     0.13553  -0.9112    1.57599 
 O                     0.02367   1.23637   0.71581 
 N                     2.60665  -1.75415  -0.45784 
 H                     3.12075  -2.34277  -1.10051 
 C                    -1.68934  -0.53764  -0.03886 
 H                    -1.55432  -1.50596  -0.5325 
 H                    -1.92317  -0.72084   1.01458 
 O                    -2.80961   0.0855   -0.62512 
 C                    -3.2541    1.15955   0.18831 
 H                    -2.38477   1.82507   0.32608 
 C                    -4.38551   1.91994  -0.48889 
 H                    -4.71252   2.76168   0.12036 
 H                    -4.07645   2.2909   -1.46541 
 H                    -5.23735   1.25948  -0.63835 
 O                    -3.61334   0.72889   1.48515 
 H                    -4.2833    0.01916   1.40136 
 
 Add virtual bond connecting atoms C3         and C2         Dist= 4.04D+00.
 Add virtual bond connecting atoms C3         and H15        Dist= 4.18D+00.
 Add virtual bond connecting atoms C8         and C1         Dist= 4.10D+00.
 Add virtual bond connecting atoms C8         and H14        Dist= 4.13D+00.
 Add virtual bond connecting atoms H9         and H14        Dist= 4.12D+00.

 GradGradGradGradGradGradGradGradGradGradGradGradGradGradGradGradGradGrad
 Berny optimization.
 Initialization pass.
                           ----------------------------
                           !    Initial Parameters    !
                           ! (Angstroms and Degrees)  !
 --------------------------                            --------------------------
 ! Name  Definition              Value          Derivative Info.                !
 --------------------------------------------------------------------------------
 ! R1    R(1,2)                  1.3564         calculate D2E/DX2 analytically  !
 ! R2    R(1,8)                  2.1682         calculate D2E/DX2 analytically  !
 ! R3    R(1,10)                 1.4701         calculate D2E/DX2 analytically  !
 ! R4    R(1,14)                 1.0827         calculate D2E/DX2 analytically  !
 ! R5    R(2,3)                  2.1397         calculate D2E/DX2 analytically  !
 ! R6    R(2,11)                 1.47           calculate D2E/DX2 analytically  !
 ! R7    R(2,15)                 1.0829         calculate D2E/DX2 analytically  !
 ! R8    R(3,4)                  1.3898         calculate D2E/DX2 analytically  !
 ! R9    R(3,15)                 2.2108         calculate D2E/DX2 analytically  !
 ! R10   R(3,16)                 1.3835         calculate D2E/DX2 analytically  !
 ! R11   R(3,19)                 1.5035         calculate D2E/DX2 analytically  !
 ! R12   R(4,5)                  1.3907         calculate D2E/DX2 analytically  !
 ! R13   R(4,6)                  1.0768         calculate D2E/DX2 analytically  !
 ! R14   R(5,7)                  1.0775         calculate D2E/DX2 analytically  !
 ! R15   R(5,8)                  1.382          calculate D2E/DX2 analytically  !
 ! R16   R(8,9)                  1.0882         calculate D2E/DX2 analytically  !
 ! R17   R(8,14)                 2.1862         calculate D2E/DX2 analytically  !
 ! R18   R(8,16)                 1.3726         calculate D2E/DX2 analytically  !
 ! R19   R(9,14)                 2.1804         calculate D2E/DX2 analytically  !
 ! R20   R(10,13)                1.2116         calculate D2E/DX2 analytically  !
 ! R21   R(10,17)                1.3838         calculate D2E/DX2 analytically  !
 ! R22   R(11,12)                1.2117         calculate D2E/DX2 analytically  !
 ! R23   R(11,17)                1.3825         calculate D2E/DX2 analytically  !
 ! R24   R(17,18)                1.0118         calculate D2E/DX2 analytically  !
 ! R25   R(19,20)                1.0952         calculate D2E/DX2 analytically  !
 ! R26   R(19,21)                1.0945         calculate D2E/DX2 analytically  !
 ! R27   R(19,22)                1.4096         calculate D2E/DX2 analytically  !
 ! R28   R(22,23)                1.4187         calculate D2E/DX2 analytically  !
 ! R29   R(23,24)                1.1035         calculate D2E/DX2 analytically  !
 ! R30   R(23,25)                1.5221         calculate D2E/DX2 analytically  !
 ! R31   R(23,29)                1.4129         calculate D2E/DX2 analytically  !
 ! R32   R(25,26)                1.0893         calculate D2E/DX2 analytically  !
 ! R33   R(25,27)                1.0894         calculate D2E/DX2 analytically  !
 ! R34   R(25,28)                1.0882         calculate D2E/DX2 analytically  !
 ! R35   R(29,30)                0.9796         calculate D2E/DX2 analytically  !
 ! A1    A(2,1,8)               99.1607         calculate D2E/DX2 analytically  !
 ! A2    A(2,1,10)             107.9025         calculate D2E/DX2 analytically  !
 ! A3    A(2,1,14)             125.6447         calculate D2E/DX2 analytically  !
 ! A4    A(8,1,10)             111.3368         calculate D2E/DX2 analytically  !
 ! A5    A(10,1,14)            124.3478         calculate D2E/DX2 analytically  !
 ! A6    A(1,2,3)              102.8293         calculate D2E/DX2 analytically  !
 ! A7    A(1,2,11)             108.5148         calculate D2E/DX2 analytically  !
 ! A8    A(1,2,15)             124.4125         calculate D2E/DX2 analytically  !
 ! A9    A(3,2,11)             104.5334         calculate D2E/DX2 analytically  !
 ! A10   A(11,2,15)            124.9239         calculate D2E/DX2 analytically  !
 ! A11   A(2,3,4)               98.3429         calculate D2E/DX2 analytically  !
 ! A12   A(2,3,16)              80.2595         calculate D2E/DX2 analytically  !
 ! A13   A(2,3,19)             100.9498         calculate D2E/DX2 analytically  !
 ! A14   A(4,3,15)             126.7821         calculate D2E/DX2 analytically  !
 ! A15   A(4,3,16)             109.4853         calculate D2E/DX2 analytically  !
 ! A16   A(4,3,19)             122.856          calculate D2E/DX2 analytically  !
 ! A17   A(15,3,16)             76.4115         calculate D2E/DX2 analytically  !
 ! A18   A(15,3,19)             80.7332         calculate D2E/DX2 analytically  !
 ! A19   A(16,3,19)            126.5326         calculate D2E/DX2 analytically  !
 ! A20   A(3,4,5)              106.9607         calculate D2E/DX2 analytically  !
 ! A21   A(3,4,6)              125.9733         calculate D2E/DX2 analytically  !
 ! A22   A(5,4,6)              127.0495         calculate D2E/DX2 analytically  !
 ! A23   A(4,5,7)              126.7007         calculate D2E/DX2 analytically  !
 ! A24   A(4,5,8)              106.4579         calculate D2E/DX2 analytically  !
 ! A25   A(7,5,8)              126.7332         calculate D2E/DX2 analytically  !
 ! A26   A(1,8,5)               95.7587         calculate D2E/DX2 analytically  !
 ! A27   A(1,8,9)              100.0528         calculate D2E/DX2 analytically  !
 ! A28   A(1,8,16)              83.0939         calculate D2E/DX2 analytically  !
 ! A29   A(5,8,9)              124.7458         calculate D2E/DX2 analytically  !
 ! A30   A(5,8,14)             122.0881         calculate D2E/DX2 analytically  !
 ! A31   A(5,8,16)             110.487          calculate D2E/DX2 analytically  !
 ! A32   A(9,8,16)             123.7461         calculate D2E/DX2 analytically  !
 ! A33   A(14,8,16)             85.0597         calculate D2E/DX2 analytically  !
 ! A34   A(1,10,13)            126.2062         calculate D2E/DX2 analytically  !
 ! A35   A(1,10,17)            106.6256         calculate D2E/DX2 analytically  !
 ! A36   A(13,10,17)           127.1681         calculate D2E/DX2 analytically  !
 ! A37   A(2,11,12)            125.8478         calculate D2E/DX2 analytically  !
 ! A38   A(2,11,17)            106.3019         calculate D2E/DX2 analytically  !
 ! A39   A(12,11,17)           127.8469         calculate D2E/DX2 analytically  !
 ! A40   A(1,14,9)              99.5438         calculate D2E/DX2 analytically  !
 ! A41   A(3,16,8)             105.0748         calculate D2E/DX2 analytically  !
 ! A42   A(10,17,11)           110.6551         calculate D2E/DX2 analytically  !
 ! A43   A(10,17,18)           124.65           calculate D2E/DX2 analytically  !
 ! A44   A(11,17,18)           124.6937         calculate D2E/DX2 analytically  !
 ! A45   A(3,19,20)            110.1575         calculate D2E/DX2 analytically  !
 ! A46   A(3,19,21)            111.203          calculate D2E/DX2 analytically  !
 ! A47   A(3,19,22)            111.8699         calculate D2E/DX2 analytically  !
 ! A48   A(20,19,21)           108.1889         calculate D2E/DX2 analytically  !
 ! A49   A(20,19,22)           107.5389         calculate D2E/DX2 analytically  !
 ! A50   A(21,19,22)           107.7276         calculate D2E/DX2 analytically  !
 ! A51   A(19,22,23)           110.194          calculate D2E/DX2 analytically  !
 ! A52   A(22,23,24)           106.3405         calculate D2E/DX2 analytically  !
 ! A53   A(22,23,25)           110.8537         calculate D2E/DX2 analytically  !
 ! A54   A(22,23,29)           112.0341         calculate D2E/DX2 analytically  !
 ! A55   A(24,23,25)           109.8673         calculate D2E/DX2 analytically  !
 ! A56   A(24,23,29)           105.6374         calculate D2E/DX2 analytically  !
 ! A57   A(25,23,29)           111.816          calculate D2E/DX2 analytically  !
 ! A58   A(23,25,26)           111.1199         calculate D2E/DX2 analytically  !
 ! A59   A(23,25,27)           110.9804         calculate D2E/DX2 analytically  !
 ! A60   A(23,25,28)           109.8625         calculate D2E/DX2 analytically  !
 ! A61   A(26,25,27)           108.8683         calculate D2E/DX2 analytically  !
 ! A62   A(26,25,28)           108.1075         calculate D2E/DX2 analytically  !
 ! A63   A(27,25,28)           107.7969         calculate D2E/DX2 analytically  !
 ! A64   A(23,29,30)           108.4345         calculate D2E/DX2 analytically  !
 ! D1    D(8,1,2,3)              5.7519         calculate D2E/DX2 analytically  !
 ! D2    D(8,1,2,11)           116.0974         calculate D2E/DX2 analytically  !
 ! D3    D(8,1,2,15)           -79.9117         calculate D2E/DX2 analytically  !
 ! D4    D(10,1,2,3)          -110.3134         calculate D2E/DX2 analytically  !
 ! D5    D(10,1,2,11)            0.0321         calculate D2E/DX2 analytically  !
 ! D6    D(10,1,2,15)          164.023          calculate D2E/DX2 analytically  !
 ! D7    D(14,1,2,3)            85.6834         calculate D2E/DX2 analytically  !
 ! D8    D(14,1,2,11)         -163.9711         calculate D2E/DX2 analytically  !
 ! D9    D(14,1,2,15)            0.0198         calculate D2E/DX2 analytically  !
 ! D10   D(2,1,8,5)            -77.6799         calculate D2E/DX2 analytically  !
 ! D11   D(2,1,8,9)            155.4761         calculate D2E/DX2 analytically  !
 ! D12   D(2,1,8,16)            32.3265         calculate D2E/DX2 analytically  !
 ! D13   D(10,1,8,5)            35.728          calculate D2E/DX2 analytically  !
 ! D14   D(10,1,8,9)           -91.116          calculate D2E/DX2 analytically  !
 ! D15   D(10,1,8,16)          145.7344         calculate D2E/DX2 analytically  !
 ! D16   D(2,1,10,13)          179.8663         calculate D2E/DX2 analytically  !
 ! D17   D(2,1,10,17)           -0.0548         calculate D2E/DX2 analytically  !
 ! D18   D(8,1,10,13)           72.0598         calculate D2E/DX2 analytically  !
 ! D19   D(8,1,10,17)         -107.8613         calculate D2E/DX2 analytically  !
 ! D20   D(14,1,10,13)         -15.8725         calculate D2E/DX2 analytically  !
 ! D21   D(14,1,10,17)         164.2064         calculate D2E/DX2 analytically  !
 ! D22   D(2,1,14,9)          -106.4977         calculate D2E/DX2 analytically  !
 ! D23   D(10,1,14,9)           92.0217         calculate D2E/DX2 analytically  !
 ! D24   D(1,2,3,4)             64.8047         calculate D2E/DX2 analytically  !
 ! D25   D(1,2,3,16)           -43.6703         calculate D2E/DX2 analytically  !
 ! D26   D(1,2,3,19)          -169.2599         calculate D2E/DX2 analytically  !
 ! D27   D(11,2,3,4)           -48.4915         calculate D2E/DX2 analytically  !
 ! D28   D(11,2,3,16)         -156.9664         calculate D2E/DX2 analytically  !
 ! D29   D(11,2,3,19)           77.444          calculate D2E/DX2 analytically  !
 ! D30   D(1,2,11,12)         -179.3614         calculate D2E/DX2 analytically  !
 ! D31   D(1,2,11,17)            0.0021         calculate D2E/DX2 analytically  !
 ! D32   D(3,2,11,12)          -70.1702         calculate D2E/DX2 analytically  !
 ! D33   D(3,2,11,17)          109.1933         calculate D2E/DX2 analytically  !
 ! D34   D(15,2,11,12)          16.7494         calculate D2E/DX2 analytically  !
 ! D35   D(15,2,11,17)        -163.8871         calculate D2E/DX2 analytically  !
 ! D36   D(2,3,4,5)            -75.3625         calculate D2E/DX2 analytically  !
 ! D37   D(2,3,4,6)            103.2391         calculate D2E/DX2 analytically  !
 ! D38   D(15,3,4,5)           -80.1295         calculate D2E/DX2 analytically  !
 ! D39   D(15,3,4,6)            98.4721         calculate D2E/DX2 analytically  !
 ! D40   D(16,3,4,5)             7.197          calculate D2E/DX2 analytically  !
 ! D41   D(16,3,4,6)          -174.2014         calculate D2E/DX2 analytically  !
 ! D42   D(19,3,4,5)           175.7778         calculate D2E/DX2 analytically  !
 ! D43   D(19,3,4,6)            -5.6206         calculate D2E/DX2 analytically  !
 ! D44   D(2,3,16,8)            83.5643         calculate D2E/DX2 analytically  !
 ! D45   D(4,3,16,8)           -11.9115         calculate D2E/DX2 analytically  !
 ! D46   D(15,3,16,8)          112.6935         calculate D2E/DX2 analytically  !
 ! D47   D(19,3,16,8)         -179.9658         calculate D2E/DX2 analytically  !
 ! D48   D(2,3,19,20)          -63.1799         calculate D2E/DX2 analytically  !
 ! D49   D(2,3,19,21)           56.7585         calculate D2E/DX2 analytically  !
 ! D50   D(2,3,19,22)          177.2653         calculate D2E/DX2 analytically  !
 ! D51   D(4,3,19,20)           44.3307         calculate D2E/DX2 analytically  !
 ! D52   D(4,3,19,21)          164.2691         calculate D2E/DX2 analytically  !
 ! D53   D(4,3,19,22)          -75.224          calculate D2E/DX2 analytically  !
 ! D54   D(15,3,19,20)         -83.7553         calculate D2E/DX2 analytically  !
 ! D55   D(15,3,19,21)          36.1832         calculate D2E/DX2 analytically  !
 ! D56   D(15,3,19,22)         156.69           calculate D2E/DX2 analytically  !
 ! D57   D(16,3,19,20)        -149.101          calculate D2E/DX2 analytically  !
 ! D58   D(16,3,19,21)         -29.1626         calculate D2E/DX2 analytically  !
 ! D59   D(16,3,19,22)          91.3442         calculate D2E/DX2 analytically  !
 ! D60   D(3,4,5,7)            176.9098         calculate D2E/DX2 analytically  !
 ! D61   D(3,4,5,8)              0.5032         calculate D2E/DX2 analytically  !
 ! D62   D(6,4,5,7)             -1.6723         calculate D2E/DX2 analytically  !
 ! D63   D(6,4,5,8)           -178.0788         calculate D2E/DX2 analytically  !
 ! D64   D(4,5,8,1)             76.6104         calculate D2E/DX2 analytically  !
 ! D65   D(4,5,8,9)           -176.9227         calculate D2E/DX2 analytically  !
 ! D66   D(4,5,8,14)            89.0753         calculate D2E/DX2 analytically  !
 ! D67   D(4,5,8,16)            -8.1493         calculate D2E/DX2 analytically  !
 ! D68   D(7,5,8,1)            -99.7947         calculate D2E/DX2 analytically  !
 ! D69   D(7,5,8,9)              6.6723         calculate D2E/DX2 analytically  !
 ! D70   D(7,5,8,14)           -87.3298         calculate D2E/DX2 analytically  !
 ! D71   D(7,5,8,16)           175.4456         calculate D2E/DX2 analytically  !
 ! D72   D(9,8,14,1)          -148.5388         calculate D2E/DX2 analytically  !
 ! D73   D(1,8,16,3)           -81.2296         calculate D2E/DX2 analytically  !
 ! D74   D(5,8,16,3)            12.3619         calculate D2E/DX2 analytically  !
 ! D75   D(9,8,16,3)          -178.7305         calculate D2E/DX2 analytically  !
 ! D76   D(14,8,16,3)         -110.1116         calculate D2E/DX2 analytically  !
 ! D77   D(1,10,17,11)           0.0572         calculate D2E/DX2 analytically  !
 ! D78   D(1,10,17,18)        -179.5663         calculate D2E/DX2 analytically  !
 ! D79   D(13,10,17,11)       -179.863          calculate D2E/DX2 analytically  !
 ! D80   D(13,10,17,18)          0.5135         calculate D2E/DX2 analytically  !
 ! D81   D(2,11,17,10)          -0.0381         calculate D2E/DX2 analytically  !
 ! D82   D(2,11,17,18)         179.5853         calculate D2E/DX2 analytically  !
 ! D83   D(12,11,17,10)        179.3086         calculate D2E/DX2 analytically  !
 ! D84   D(12,11,17,18)         -1.0681         calculate D2E/DX2 analytically  !
 ! D85   D(3,19,22,23)         -74.4229         calculate D2E/DX2 analytically  !
 ! D86   D(20,19,22,23)        164.4936         calculate D2E/DX2 analytically  !
 ! D87   D(21,19,22,23)         48.0881         calculate D2E/DX2 analytically  !
 ! D88   D(19,22,23,24)         55.6219         calculate D2E/DX2 analytically  !
 ! D89   D(19,22,23,25)        175.0059         calculate D2E/DX2 analytically  !
 ! D90   D(19,22,23,29)        -59.3192         calculate D2E/DX2 analytically  !
 ! D91   D(22,23,25,26)       -178.5056         calculate D2E/DX2 analytically  !
 ! D92   D(22,23,25,27)        -57.2123         calculate D2E/DX2 analytically  !
 ! D93   D(22,23,25,28)         61.904          calculate D2E/DX2 analytically  !
 ! D94   D(24,23,25,26)        -61.2622         calculate D2E/DX2 analytically  !
 ! D95   D(24,23,25,27)         60.0312         calculate D2E/DX2 analytically  !
 ! D96   D(24,23,25,28)        179.1474         calculate D2E/DX2 analytically  !
 ! D97   D(29,23,25,26)         55.6975         calculate D2E/DX2 analytically  !
 ! D98   D(29,23,25,27)        176.9908         calculate D2E/DX2 analytically  !
 ! D99   D(29,23,25,28)        -63.8929         calculate D2E/DX2 analytically  !
 ! D100  D(22,23,29,30)        -55.1986         calculate D2E/DX2 analytically  !
 ! D101  D(24,23,29,30)       -170.5687         calculate D2E/DX2 analytically  !
 ! D102  D(25,23,29,30)         69.9476         calculate D2E/DX2 analytically  !
 --------------------------------------------------------------------------------
 Trust Radius=3.00D-01 FncErr=1.00D-07 GrdErr=1.00D-06 EigMax=2.50D+02 EigMin=1.00D-04
 Number of steps in this run=    180 maximum allowed number of steps=    180.
 Search for a saddle point of order  1.
 GradGradGradGradGradGradGradGradGradGradGradGradGradGradGradGradGradGrad

                          Input orientation:                          
 ---------------------------------------------------------------------
 Center     Atomic      Atomic             Coordinates (Angstroms)
 Number     Number       Type             X           Y           Z
 ---------------------------------------------------------------------
      1          6           0        2.041708   -0.075383    0.992256
      2          6           0        0.970251   -0.900381    0.886200
      3          6           0       -0.445966    0.295203   -0.182985
      4          6           0        0.250150    0.409863   -1.380384
      5          6           0        1.275525    1.324940   -1.167522
      6          1           0        0.041393   -0.131177   -2.287722
      7          1           0        2.036305    1.615295   -1.873194
      8          6           0        1.175256    1.725559    0.151361
      9          1           0        1.806622    2.477251    0.620922
     10          6           0        3.108658   -0.607543    0.132324
     11          6           0        1.309259   -1.988846   -0.041772
     12          8           0        0.575181   -2.894717   -0.371461
     13          8           0        4.209598   -0.126201   -0.022998
     14          1           0        2.194272    0.664081    1.768204
     15          1           0        0.135535   -0.911198    1.575986
     16          8           0        0.023672    1.236367    0.715814
     17          7           0        2.606645   -1.754147   -0.457836
     18          1           0        3.120752   -2.342772   -1.100508
     19          6           0       -1.689336   -0.537640   -0.038860
     20          1           0       -1.554321   -1.505958   -0.532503
     21          1           0       -1.923175   -0.720843    1.014575
     22          8           0       -2.809606    0.085501   -0.625118
     23          6           0       -3.254097    1.159547    0.188309
     24          1           0       -2.384767    1.825066    0.326077
     25          6           0       -4.385509    1.919944   -0.488894
     26          1           0       -4.712525    2.761682    0.120362
     27          1           0       -4.076449    2.290903   -1.465412
     28          1           0       -5.237347    1.259483   -0.638351
     29          8           0       -3.613343    0.728890    1.485150
     30          1           0       -4.283297    0.019158    1.401361
 ---------------------------------------------------------------------
                    Distance matrix (angstroms):
                    1          2          3          4          5
     1  C    0.000000
     2  C    1.356426   0.000000
     3  C    2.776157   2.139684   0.000000
     4  C    3.012402   2.715270   1.389780   0.000000
     5  C    2.685625   3.043522   2.234548   1.390709   0.000000
     6  H    3.842217   3.395325   2.202098   1.076831   2.213189
     7  H    3.327044   3.883215   3.280414   2.210493   1.077527
     8  C    2.168233   2.734517   2.187708   2.221063   1.382028
     9  H    2.590192   3.489741   3.237554   3.271380   2.192810
    10  C    1.470055   2.286235   3.680995   3.390350   2.963861
    11  C    2.295002   1.469971   2.884031   2.944044   3.499947
    12  O    3.458190   2.390642   3.354677   3.470421   4.350828
    13  O    2.394383   3.452444   4.677334   4.219845   3.467641
    14  H    1.082672   2.173408   3.303645   3.709157   3.146319
    15  H    2.161672   1.082900   2.210775   3.240134   3.718432
    16  O    2.422721   2.343232   1.383542   2.264608   2.263169
    17  N    2.289142   2.283229   3.686979   3.329731   3.428749
    18  H    3.268799   3.263764   4.530148   3.986940   4.106272
    19  C    3.898406   2.839140   1.503452   2.541467   3.678788
    20  H    4.159671   2.958531   2.143547   2.765029   4.052809
    21  H    4.017140   2.901831   2.156072   3.426028   4.379321
    22  O    5.116349   4.188480   2.413762   3.168239   4.303336
    23  C    5.496993   4.751365   2.961511   3.911850   4.731079
    24  H    4.863042   4.358663   2.521621   3.443485   3.984808
    25  C    6.890881   6.207196   4.272395   4.956251   5.732527
    26  H    7.377587   6.803760   4.937515   5.693104   6.291233
    27  H    7.005090   6.417442   4.336802   4.718581   5.446600
    28  H    7.577953   6.747113   4.908617   5.602239   6.534661
    29  O    5.733184   4.901285   3.605972   4.820751   5.594012
    30  H    6.338927   5.358237   4.160704   5.333188   6.261368
                    6          7          8          9         10
     6  H    0.000000
     7  H    2.683594   0.000000
     8  C    3.268370   2.202813   0.000000
     9  H    4.287207   2.648837   1.088187   0.000000
    10  C    3.935945   3.180103   3.030144   3.383782   0.000000
    11  C    3.178476   4.107619   3.721836   4.542307   2.275114
    12  O    3.405017   4.972957   4.688325   5.599939   3.450141
    13  O    4.743726   3.343537   3.559023   3.600956   1.211563
    14  H    4.660243   3.766901   2.186164   2.180394   2.264781
    15  H    3.942783   4.678990   3.172234   3.896957   3.319010
    16  O    3.300261   3.301096   1.372611   2.174329   3.641099
    17  N    3.544438   3.698874   3.811608   4.439424   1.383837
    18  H    3.972793   4.176047   4.680112   5.284210   2.128623
    19  C    2.866708   4.677640   3.655700   4.663326   4.801555
    20  H    2.741736   4.942901   4.284970   5.337817   4.795051
    21  H    3.887467   5.429017   4.041076   4.928910   5.109848
    22  O    3.307476   5.232668   4.378565   5.346274   6.006652
    23  C    4.319369   5.696126   4.465524   5.247321   6.603816
    24  H    4.067564   4.942334   3.565696   4.252061   6.011060
    25  C    5.200032   6.576381   5.600876   6.315439   7.933261
    26  H    6.063599   7.129879   5.978334   6.544520   8.516027
    27  H    4.847607   6.163481   5.523946   6.244842   7.910722
    28  H    5.702582   7.386301   6.477835   7.258528   8.586939
    29  O    5.322722   6.631946   5.069815   5.760181   6.985806
    30  H    5.686376   7.294363   5.854068   6.613503   7.526235
                   11         12         13         14         15
    11  C    0.000000
    12  O    1.211681   0.000000
    13  O    3.446994   4.582041   0.000000
    14  H    3.331258   4.456980   2.809713   0.000000
    15  H    2.270704   2.814283   4.446455   2.599395   0.000000
    16  O    3.553684   4.307225   4.463677   2.479222   2.316128
    17  N    1.382535   2.331354   2.325672   3.312572   3.309590
    18  H    2.127837   2.704827   2.694402   4.257820   4.257293
    19  C    3.331303   3.285494   5.913286   4.448823   2.465244
    20  H    2.945181   2.547423   5.948621   4.904516   2.766782
    21  H    3.629370   3.590071   6.248284   4.409006   2.142359
    22  O    4.648468   4.516949   7.048162   5.576875   3.809478
    23  C    5.548831   5.604798   7.576578   5.694408   4.207521
    24  H    5.322317   5.614642   6.885851   4.939151   3.924453
    25  C    6.921628   6.913985   8.847577   7.068607   5.720046
    26  H    7.671745   7.758645   9.378949   7.403996   6.254004
    27  H    7.024874   7.051599   8.751088   7.240496   6.102817
    28  H    7.332502   7.149411   9.567839   7.834218   6.203467
    29  O    5.826627   5.841341   8.012746   5.814870   4.092948
    30  H    6.114850   5.936192   8.612734   6.519923   4.519085
                   16         17         18         19         20
    16  O    0.000000
    17  N    4.122182   0.000000
    18  H    5.069632   1.011836   0.000000
    19  C    2.578959   4.484516   5.246193   0.000000
    20  H    3.401280   4.169031   4.783220   1.095241   0.000000
    21  H    2.776714   4.873908   5.704860   1.094518   1.773672
    22  O    3.339170   5.722593   6.425858   1.409613   2.029054
    23  C    3.320833   6.576885   7.386879   2.319596   3.242487
    24  H    2.509789   6.191888   7.051011   2.489815   3.538717
    25  C    4.621631   7.898742   8.653830   3.675813   4.444584
    26  H    5.011258   8.619587   9.429008   4.477784   5.349134
    27  H    4.762436   7.876637   8.567602   3.966613   4.652699
    28  H    5.432552   8.404925   9.113048   4.022116   4.606901
    29  O    3.751971   6.973444   7.840202   2.761975   3.647607
    30  H    4.527865   7.353402   8.164435   3.018757   3.676019
                   21         22         23         24         25
    21  H    0.000000
    22  O    2.030897   0.000000
    23  C    2.447434   1.418735   0.000000
    24  H    2.677452   2.027645   1.103463   0.000000
    25  C    3.911172   2.422232   1.522137   2.162440   0.000000
    26  H    4.550612   3.367311   2.167594   2.517544   1.089337
    27  H    4.456181   2.678579   2.165878   2.507634   1.089366
    28  H    4.199713   2.696726   2.150961   3.063857   1.088198
    29  O    2.275925   2.348014   1.412912   2.013567   2.431398
    30  H    2.503474   2.506548   1.957354   2.832306   2.682629
                   26         27         28         29         30
    26  H    0.000000
    27  H    1.772260   0.000000
    28  H    1.762863   1.759415   0.000000
    29  O    2.683857   3.370485   2.725468   0.000000
    30  H    3.057226   3.663606   2.570806   0.979581   0.000000
 Stoichiometry    C11H13NO5
 Framework group  C1[X(C11H13NO5)]
 Deg. of freedom    84
 Full point group                 C1      NOp   1
 Largest Abelian subgroup         C1      NOp   1
 Largest concise Abelian subgroup C1      NOp   1
                         Standard orientation:                         
 ---------------------------------------------------------------------
 Center     Atomic      Atomic             Coordinates (Angstroms)
 Number     Number       Type             X           Y           Z
 ---------------------------------------------------------------------
      1          6           0        2.014840   -0.494992   -1.053538
      2          6           0        1.221746    0.598371   -0.929241
      3          6           0       -0.441318   -0.146068    0.192490
      4          6           0        0.229302   -0.446267    1.372167
      5          6           0        0.949770   -1.613615    1.143481
      6          1           0        0.207508    0.135788    2.277872
      7          1           0        1.618704   -2.102853    1.832130
      8          6           0        0.702506   -1.975942   -0.167085
      9          1           0        1.083367   -2.876928   -0.643866
     10          6           0        3.212973   -0.280224   -0.229273
     11          6           0        1.879759    1.551918   -0.024487
     12          8           0        1.439569    2.629095    0.313289
     13          8           0        4.138499   -1.050876   -0.097433
     14          1           0        1.930851   -1.251075   -1.823903
     15          1           0        0.403851    0.840196   -1.596505
     16          8           0       -0.281366   -1.185398   -0.706619
     17          7           0        3.070627    0.963948    0.359607
     18          1           0        3.747909    1.387289    0.980802
     19          6           0       -1.404446    1.001995    0.071221
     20          1           0       -0.988569    1.895584    0.548816
     21          1           0       -1.608137    1.238706   -0.977800
     22          8           0       -2.636978    0.721527    0.695088
     23          6           0       -3.388783   -0.188012   -0.092527
     24          1           0       -2.745736   -1.071661   -0.245121
     25          6           0       -4.667888   -0.596653    0.624275
     26          1           0       -5.235791   -1.315332    0.034663
     27          1           0       -4.447010   -1.035045    1.596768
     28          1           0       -5.295233    0.277280    0.788149
     29          8           0       -3.650411    0.320308   -1.384611
     30          1           0       -4.091357    1.190104   -1.291870
 ---------------------------------------------------------------------
 Rotational constants (GHZ):           1.0613547           0.2963416           0.2658335
 Standard basis: CC-pVDZ (5D, 7F)
 There are   320 symmetry adapted cartesian basis functions of A   symmetry.
 There are   303 symmetry adapted basis functions of A   symmetry.
   303 basis functions,   652 primitive gaussians,   320 cartesian basis functions
    63 alpha electrons       63 beta electrons
       nuclear repulsion energy      1291.5053348763 Hartrees.
 NAtoms=   30 NActive=   30 NUniq=   30 SFac= 1.00D+00 NAtFMM=   60 NAOKFM=F Big=F
 Integral buffers will be    131072 words long.
 Raffenetti 2 integral format.
 Two-electron integral symmetry is turned on.
 Nuclear repulsion after empirical dispersion term =     1291.5037878383 Hartrees.
 One-electron integrals computed using PRISM.
 NBasis=   303 RedAO= T EigKep=  5.50D-04  NBF=   303
 NBsUse=   303 1.00D-06 EigRej= -1.00D+00 NBFU=   303
 ExpMin= 1.22D-01 ExpMax= 1.17D+04 ExpMxC= 4.01D+02 IAcc=3 IRadAn=         5 AccDes= 0.00D+00
 Harris functional with IExCor= 1009 and IRadAn=       5 diagonalized for initial guess.
 HarFok:  IExCor= 1009 AccDes= 0.00D+00 IRadAn=         5 IDoV= 1 UseB2=F ITyADJ=14
 ICtDFT=  3500011 ScaDFX=  1.000000  1.000000  1.000000  1.000000
 FoFCou: FMM=F IPFlag=           0 FMFlag=      100000 FMFlg1=           0
         NFxFlg=           0 DoJE=T BraDBF=F KetDBF=T FulRan=T
         wScrn=  0.000000 ICntrl=       500 IOpCl=  0 I1Cent=   200000004 NGrid=           0
         NMat0=    1 NMatS0=      1 NMatT0=    0 NMatD0=    1 NMtDS0=    0 NMtDT0=    0
 Petite list used in FoFCou.
 Requested convergence on RMS density matrix=1.00D-08 within 128 cycles.
 Requested convergence on MAX density matrix=1.00D-06.
 Requested convergence on             energy=1.00D-06.
 No special actions if energy rises.
 Integral accuracy reduced to 1.0D-05 until final iterations.
 Initial convergence to 1.0D-05 achieved.  Increase integral accuracy.
 SCF Done:  E(RM062X) =  -857.534481671     A.U. after   15 cycles
            NFock= 15  Conv=0.66D-08     -V/T= 2.0054
 DoSCS=F DFT=T ScalE2(SS,OS)=  1.000000  1.000000
 Range of M.O.s used for correlation:     1   303
 NBasis=   303 NAE=    63 NBE=    63 NFC=     0 NFV=     0
 NROrb=    303 NOA=    63 NOB=    63 NVA=   240 NVB=   240
 Symmetrizing basis deriv contribution to polar:
 IMax=3 JMax=2 DiffMx= 0.00D+00
 G2DrvN: will do    31 centers at a time, making    1 passes.
 Calling FoFCou, ICntrl=  3107 FMM=F I1Cent=   0 AccDes= 0.00D+00.
 End of G2Drv F.D. properties file   721 does not exist.
 End of G2Drv F.D. properties file   722 does not exist.
 End of G2Drv F.D. properties file   788 does not exist.
          IDoAtm=111111111111111111111111111111
          Differentiating once with respect to nuclear coordinates.
 Keep R1 ints in memory in canonical form, NReq=1077153061.
          There are    93 degrees of freedom in the 1st order CPHF.  IDoFFX=6 NUNeed=     0.
     87 vectors produced by pass  0 Test12= 1.63D-14 1.08D-09 XBig12= 1.21D-01 7.75D-02.
 AX will form    87 AO Fock derivatives at one time.
     87 vectors produced by pass  1 Test12= 1.63D-14 1.08D-09 XBig12= 2.25D-02 3.42D-02.
     87 vectors produced by pass  2 Test12= 1.63D-14 1.08D-09 XBig12= 3.44D-04 3.35D-03.
     87 vectors produced by pass  3 Test12= 1.63D-14 1.08D-09 XBig12= 2.77D-06 1.75D-04.
     87 vectors produced by pass  4 Test12= 1.63D-14 1.08D-09 XBig12= 1.84D-08 1.77D-05.
     87 vectors produced by pass  5 Test12= 1.63D-14 1.08D-09 XBig12= 7.47D-11 1.02D-06.
     67 vectors produced by pass  6 Test12= 1.63D-14 1.08D-09 XBig12= 2.52D-13 7.03D-08.
     10 vectors produced by pass  7 Test12= 1.63D-14 1.08D-09 XBig12= 7.31D-16 2.09D-09.
 InvSVY:  IOpt=1 It=  1 EMax= 1.33D-15
 Solved reduced A of dimension   599 with    93 vectors.
 End of Minotr F.D. properties file   721 does not exist.
 End of Minotr F.D. properties file   722 does not exist.
 End of Minotr F.D. properties file   788 does not exist.

 **********************************************************************

            Population analysis using the SCF density.

 **********************************************************************

 Orbital symmetries:
       Occupied  (A) (A) (A) (A) (A) (A) (A) (A) (A) (A) (A) (A)
                 (A) (A) (A) (A) (A) (A) (A) (A) (A) (A) (A) (A)
                 (A) (A) (A) (A) (A) (A) (A) (A) (A) (A) (A) (A)
                 (A) (A) (A) (A) (A) (A) (A) (A) (A) (A) (A) (A)
                 (A) (A) (A) (A) (A) (A) (A) (A) (A) (A) (A) (A)
                 (A) (A) (A)
       Virtual   (A) (A) (A) (A) (A) (A) (A) (A) (A) (A) (A) (A)
                 (A) (A) (A) (A) (A) (A) (A) (A) (A) (A) (A) (A)
                 (A) (A) (A) (A) (A) (A) (A) (A) (A) (A) (A) (A)
                 (A) (A) (A) (A) (A) (A) (A) (A) (A) (A) (A) (A)
                 (A) (A) (A) (A) (A) (A) (A) (A) (A) (A) (A) (A)
                 (A) (A) (A) (A) (A) (A) (A) (A) (A) (A) (A) (A)
                 (A) (A) (A) (A) (A) (A) (A) (A) (A) (A) (A) (A)
                 (A) (A) (A) (A) (A) (A) (A) (A) (A) (A) (A) (A)
                 (A) (A) (A) (A) (A) (A) (A) (A) (A) (A) (A) (A)
                 (A) (A) (A) (A) (A) (A) (A) (A) (A) (A) (A) (A)
                 (A) (A) (A) (A) (A) (A) (A) (A) (A) (A) (A) (A)
                 (A) (A) (A) (A) (A) (A) (A) (A) (A) (A) (A) (A)
                 (A) (A) (A) (A) (A) (A) (A) (A) (A) (A) (A) (A)
                 (A) (A) (A) (A) (A) (A) (A) (A) (A) (A) (A) (A)
                 (A) (A) (A) (A) (A) (A) (A) (A) (A) (A) (A) (A)
                 (A) (A) (A) (A) (A) (A) (A) (A) (A) (A) (A) (A)
                 (A) (A) (A) (A) (A) (A) (A) (A) (A) (A) (A) (A)
                 (A) (A) (A) (A) (A) (A) (A) (A) (A) (A) (A) (A)
                 (A) (A) (A) (A) (A) (A) (A) (A) (A) (A) (A) (A)
                 (A) (A) (A) (A) (A) (A) (A) (A) (A) (A) (A) (A)
 The electronic state is 1-A.
 Alpha  occ. eigenvalues --  -19.71885 -19.65142 -19.64562 -19.62462 -19.62145
 Alpha  occ. eigenvalues --  -14.80052 -10.66785 -10.66576 -10.64926 -10.63928
 Alpha  occ. eigenvalues --  -10.63576 -10.61168 -10.56956 -10.56592 -10.56075
 Alpha  occ. eigenvalues --  -10.55981 -10.54610  -1.25537  -1.20062  -1.18670
 Alpha  occ. eigenvalues --   -1.16623  -1.12860  -1.06502  -0.93482  -0.90448
 Alpha  occ. eigenvalues --   -0.89459  -0.85046  -0.78117  -0.75853  -0.71744
 Alpha  occ. eigenvalues --   -0.70349  -0.69737  -0.67658  -0.66530  -0.63305
 Alpha  occ. eigenvalues --   -0.60362  -0.58255  -0.57199  -0.56423  -0.55891
 Alpha  occ. eigenvalues --   -0.54445  -0.52771  -0.52587  -0.51111  -0.50325
 Alpha  occ. eigenvalues --   -0.49600  -0.49104  -0.48496  -0.47976  -0.46729
 Alpha  occ. eigenvalues --   -0.46386  -0.45787  -0.44495  -0.43848  -0.39220
 Alpha  occ. eigenvalues --   -0.37665  -0.36793  -0.35485  -0.35112  -0.34548
 Alpha  occ. eigenvalues --   -0.32917  -0.30970  -0.30643
 Alpha virt. eigenvalues --   -0.02090   0.01880   0.05925   0.09194   0.09650
 Alpha virt. eigenvalues --    0.10579   0.11427   0.12536   0.13117   0.13760
 Alpha virt. eigenvalues --    0.14118   0.16059   0.16205   0.16998   0.17558
 Alpha virt. eigenvalues --    0.18240   0.18873   0.20733   0.22260   0.22549
 Alpha virt. eigenvalues --    0.23141   0.25379   0.26443   0.27075   0.27781
 Alpha virt. eigenvalues --    0.28357   0.29690   0.31608   0.35369   0.35964
 Alpha virt. eigenvalues --    0.37301   0.37745   0.40827   0.42053   0.42562
 Alpha virt. eigenvalues --    0.45752   0.46588   0.48380   0.49854   0.50426
 Alpha virt. eigenvalues --    0.51178   0.51278   0.52146   0.52530   0.53349
 Alpha virt. eigenvalues --    0.54089   0.55196   0.56107   0.57012   0.58336
 Alpha virt. eigenvalues --    0.60252   0.61007   0.62256   0.63953   0.64723
 Alpha virt. eigenvalues --    0.65218   0.66605   0.66863   0.67733   0.68872
 Alpha virt. eigenvalues --    0.69162   0.69759   0.70357   0.70761   0.71347
 Alpha virt. eigenvalues --    0.72611   0.72846   0.73315   0.74527   0.74945
 Alpha virt. eigenvalues --    0.75183   0.76029   0.76743   0.77748   0.78785
 Alpha virt. eigenvalues --    0.79085   0.83736   0.84484   0.86236   0.88304
 Alpha virt. eigenvalues --    0.89289   0.91260   0.92523   0.92905   0.94501
 Alpha virt. eigenvalues --    0.97135   0.99295   1.00110   1.01826   1.02544
 Alpha virt. eigenvalues --    1.03767   1.05187   1.06530   1.08001   1.08975
 Alpha virt. eigenvalues --    1.10618   1.11286   1.12060   1.12966   1.13384
 Alpha virt. eigenvalues --    1.14870   1.15679   1.17061   1.18221   1.19767
 Alpha virt. eigenvalues --    1.21576   1.22899   1.23642   1.24599   1.25631
 Alpha virt. eigenvalues --    1.26539   1.28713   1.30119   1.30823   1.32142
 Alpha virt. eigenvalues --    1.33832   1.36389   1.38264   1.40495   1.41580
 Alpha virt. eigenvalues --    1.43584   1.44894   1.45351   1.46563   1.47132
 Alpha virt. eigenvalues --    1.49115   1.51483   1.52161   1.53827   1.55949
 Alpha virt. eigenvalues --    1.58204   1.59049   1.61002   1.61979   1.62958
 Alpha virt. eigenvalues --    1.64230   1.64423   1.65205   1.66575   1.67196
 Alpha virt. eigenvalues --    1.67668   1.67836   1.69979   1.70162   1.70993
 Alpha virt. eigenvalues --    1.72701   1.72872   1.73561   1.74149   1.76068
 Alpha virt. eigenvalues --    1.76359   1.76826   1.77556   1.78033   1.79712
 Alpha virt. eigenvalues --    1.80388   1.82104   1.83306   1.84538   1.86059
 Alpha virt. eigenvalues --    1.87353   1.88116   1.89319   1.90958   1.91707
 Alpha virt. eigenvalues --    1.92329   1.94384   1.94887   1.96416   1.97633
 Alpha virt. eigenvalues --    1.99697   2.00958   2.02085   2.05683   2.07947
 Alpha virt. eigenvalues --    2.08650   2.10459   2.11414   2.14358   2.15138
 Alpha virt. eigenvalues --    2.16131   2.17940   2.18989   2.19836   2.22336
 Alpha virt. eigenvalues --    2.23560   2.24670   2.26401   2.28213   2.30620
 Alpha virt. eigenvalues --    2.30998   2.32261   2.35921   2.38359   2.39331
 Alpha virt. eigenvalues --    2.41675   2.43782   2.46520   2.47285   2.48528
 Alpha virt. eigenvalues --    2.49610   2.50772   2.51246   2.52249   2.54581
 Alpha virt. eigenvalues --    2.58675   2.59901   2.60901   2.63270   2.66036
 Alpha virt. eigenvalues --    2.70054   2.76285   2.76663   2.78458   2.81208
 Alpha virt. eigenvalues --    2.83371   2.85384   2.93571   2.99297   3.00422
 Alpha virt. eigenvalues --    3.04781   3.06775   3.12310   3.14355   3.17524
 Alpha virt. eigenvalues --    3.20110   3.21237   3.24220   3.27316   3.30011
 Alpha virt. eigenvalues --    3.31580   3.38961   3.41677   3.42345   3.44646
 Alpha virt. eigenvalues --    3.49406   3.51126   3.56428   3.57421   3.70532
          Condensed to atoms (all electrons):
               1          2          3          4          5          6
     1  C    5.308383   0.407439  -0.035278  -0.042580  -0.025274   0.000415
     2  C    0.407439   5.292405   0.094964  -0.033850  -0.036114  -0.001173
     3  C   -0.035278   0.094964   5.261491   0.428438  -0.014198  -0.047123
     4  C   -0.042580  -0.033850   0.428438   4.850649   0.525923   0.419572
     5  C   -0.025274  -0.036114  -0.014198   0.525923   4.758995  -0.045126
     6  H    0.000415  -0.001173  -0.047123   0.419572  -0.045126   0.651123
     7  H   -0.001979   0.000228   0.010920  -0.042576   0.413327  -0.006995
     8  C    0.096861  -0.046839  -0.208126  -0.016830   0.494209   0.011676
     9  H   -0.008396   0.002520   0.000042   0.007569  -0.036148  -0.000127
    10  C    0.272324  -0.028409   0.002596  -0.003587  -0.004577  -0.000578
    11  C   -0.025978   0.258295  -0.015482  -0.005387  -0.002431   0.003177
    12  O    0.005443  -0.089342  -0.002952  -0.002367   0.000284  -0.000088
    13  O   -0.087313   0.005307   0.000095   0.000136  -0.001558  -0.000009
    14  H    0.386718  -0.018429  -0.000412   0.002786  -0.005472   0.000049
    15  H   -0.023166   0.396823  -0.016783   0.000234   0.002735  -0.000324
    16  O   -0.051260  -0.059604   0.348757  -0.076901  -0.051770   0.002953
    17  N   -0.110964  -0.097249  -0.002920   0.004504  -0.000104  -0.000107
    18  H    0.010223   0.009843  -0.000007  -0.000192   0.000020   0.000061
    19  C    0.002405  -0.009757   0.386747  -0.063123   0.005691  -0.003425
    20  H    0.000362  -0.005612  -0.015457  -0.010469   0.000614   0.000001
    21  H    0.000839  -0.003291  -0.027326   0.010510  -0.000619   0.000511
    22  O   -0.000040   0.000615  -0.071552   0.000895   0.000097   0.000764
    23  C   -0.000026  -0.000096  -0.009682   0.000204  -0.000008   0.000021
    24  H    0.000226   0.000448   0.013488   0.001051  -0.000121   0.000025
    25  C    0.000000  -0.000001  -0.000993  -0.000009  -0.000015  -0.000006
    26  H    0.000000  -0.000000   0.000054   0.000002  -0.000000  -0.000000
    27  H    0.000000   0.000001  -0.000067   0.000120   0.000004   0.000010
    28  H   -0.000000  -0.000000   0.000132   0.000003   0.000000   0.000001
    29  O    0.000000   0.000044  -0.001805   0.000065  -0.000003   0.000004
    30  H    0.000000  -0.000005   0.000894  -0.000012   0.000001  -0.000001
               7          8          9         10         11         12
     1  C   -0.001979   0.096861  -0.008396   0.272324  -0.025978   0.005443
     2  C    0.000228  -0.046839   0.002520  -0.028409   0.258295  -0.089342
     3  C    0.010920  -0.208126   0.000042   0.002596  -0.015482  -0.002952
     4  C   -0.042576  -0.016830   0.007569  -0.003587  -0.005387  -0.002367
     5  C    0.413327   0.494209  -0.036148  -0.004577  -0.002431   0.000284
     6  H   -0.006995   0.011676  -0.000127  -0.000578   0.003177  -0.000088
     7  H    0.644713  -0.044118  -0.003526   0.003784  -0.000232   0.000005
     8  C   -0.044118   4.851663   0.411502  -0.016273   0.002498   0.000028
     9  H   -0.003526   0.411502   0.605321  -0.000020  -0.000188   0.000001
    10  C    0.003784  -0.016273  -0.000020   4.481974  -0.066383  -0.000370
    11  C   -0.000232   0.002498  -0.000188  -0.066383   4.506273   0.783638
    12  O    0.000005   0.000028   0.000001  -0.000370   0.783638   7.602202
    13  O    0.000639  -0.000871   0.001019   0.807623   0.000048  -0.000008
    14  H   -0.000302  -0.006820  -0.006917  -0.027665   0.006657  -0.000088
    15  H    0.000037  -0.000142  -0.000075   0.006119  -0.034686  -0.000620
    16  O    0.003104   0.379081  -0.017370   0.001589   0.001276   0.000014
    17  N   -0.000352  -0.000088  -0.000006   0.365563   0.375390  -0.064665
    18  H    0.000016  -0.000013  -0.000004  -0.018123  -0.018429   0.003125
    19  C   -0.000160   0.000407  -0.000240  -0.000027  -0.002851  -0.002250
    20  H    0.000001   0.000099   0.000011  -0.000001   0.002709   0.019054
    21  H    0.000004  -0.000161  -0.000007  -0.000020  -0.000322  -0.000104
    22  O    0.000000  -0.000226   0.000002   0.000000   0.000060   0.000012
    23  C    0.000002   0.000058   0.000019   0.000000   0.000010   0.000002
    24  H   -0.000004   0.000820  -0.000070  -0.000002  -0.000007   0.000000
    25  C   -0.000000   0.000002  -0.000000   0.000000   0.000000   0.000000
    26  H    0.000000  -0.000002   0.000000  -0.000000  -0.000000   0.000000
    27  H    0.000000  -0.000006  -0.000000  -0.000000  -0.000000   0.000000
    28  H    0.000000   0.000000  -0.000000   0.000000  -0.000000   0.000000
    29  O   -0.000000   0.000003   0.000000   0.000000   0.000001  -0.000000
    30  H    0.000000   0.000002  -0.000000   0.000000  -0.000000   0.000000
              13         14         15         16         17         18
     1  C   -0.087313   0.386718  -0.023166  -0.051260  -0.110964   0.010223
     2  C    0.005307  -0.018429   0.396823  -0.059604  -0.097249   0.009843
     3  C    0.000095  -0.000412  -0.016783   0.348757  -0.002920  -0.000007
     4  C    0.000136   0.002786   0.000234  -0.076901   0.004504  -0.000192
     5  C   -0.001558  -0.005472   0.002735  -0.051770  -0.000104   0.000020
     6  H   -0.000009   0.000049  -0.000324   0.002953  -0.000107   0.000061
     7  H    0.000639  -0.000302   0.000037   0.003104  -0.000352   0.000016
     8  C   -0.000871  -0.006820  -0.000142   0.379081  -0.000088  -0.000013
     9  H    0.001019  -0.006917  -0.000075  -0.017370  -0.000006  -0.000004
    10  C    0.807623  -0.027665   0.006119   0.001589   0.365563  -0.018123
    11  C    0.000048   0.006657  -0.034686   0.001276   0.375390  -0.018429
    12  O   -0.000008  -0.000088  -0.000620   0.000014  -0.064665   0.003125
    13  O    7.588059  -0.000075  -0.000092   0.000003  -0.070975   0.003209
    14  H   -0.000075   0.645623  -0.008796  -0.003147   0.003149  -0.000070
    15  H   -0.000092  -0.008796   0.646699  -0.002987   0.002676  -0.000047
    16  O    0.000003  -0.003147  -0.002987   7.745409   0.000106   0.000008
    17  N   -0.070975   0.003149   0.002676   0.000106   6.410173   0.348837
    18  H    0.003209  -0.000070  -0.000047   0.000008   0.348837   0.541112
    19  C    0.000001  -0.000037  -0.000227  -0.023141   0.000103  -0.000021
    20  H    0.000000  -0.000036  -0.000807   0.002106   0.000391  -0.000020
    21  H    0.000000   0.000023   0.003760   0.000191  -0.000025  -0.000000
    22  O    0.000000   0.000001   0.000116   0.000372  -0.000000  -0.000000
    23  C    0.000000   0.000000   0.000047  -0.003001  -0.000000  -0.000000
    24  H   -0.000000   0.000002   0.000187   0.008850  -0.000000  -0.000000
    25  C    0.000000   0.000000  -0.000011   0.000054  -0.000000  -0.000000
    26  H    0.000000  -0.000000   0.000000  -0.000000   0.000000   0.000000
    27  H   -0.000000  -0.000000   0.000002  -0.000002  -0.000000  -0.000000
    28  H    0.000000  -0.000000   0.000001  -0.000005   0.000000   0.000000
    29  O   -0.000000   0.000000  -0.000542   0.000030   0.000000   0.000000
    30  H    0.000000  -0.000000   0.000014  -0.000043   0.000000   0.000000
              19         20         21         22         23         24
     1  C    0.002405   0.000362   0.000839  -0.000040  -0.000026   0.000226
     2  C   -0.009757  -0.005612  -0.003291   0.000615  -0.000096   0.000448
     3  C    0.386747  -0.015457  -0.027326  -0.071552  -0.009682   0.013488
     4  C   -0.063123  -0.010469   0.010510   0.000895   0.000204   0.001051
     5  C    0.005691   0.000614  -0.000619   0.000097  -0.000008  -0.000121
     6  H   -0.003425   0.000001   0.000511   0.000764   0.000021   0.000025
     7  H   -0.000160   0.000001   0.000004   0.000000   0.000002  -0.000004
     8  C    0.000407   0.000099  -0.000161  -0.000226   0.000058   0.000820
     9  H   -0.000240   0.000011  -0.000007   0.000002   0.000019  -0.000070
    10  C   -0.000027  -0.000001  -0.000020   0.000000   0.000000  -0.000002
    11  C   -0.002851   0.002709  -0.000322   0.000060   0.000010  -0.000007
    12  O   -0.002250   0.019054  -0.000104   0.000012   0.000002   0.000000
    13  O    0.000001   0.000000   0.000000   0.000000   0.000000  -0.000000
    14  H   -0.000037  -0.000036   0.000023   0.000001   0.000000   0.000002
    15  H   -0.000227  -0.000807   0.003760   0.000116   0.000047   0.000187
    16  O   -0.023141   0.002106   0.000191   0.000372  -0.003001   0.008850
    17  N    0.000103   0.000391  -0.000025  -0.000000  -0.000000  -0.000000
    18  H   -0.000021  -0.000020  -0.000000  -0.000000  -0.000000  -0.000000
    19  C    4.491006   0.383257   0.359242   0.353550  -0.067604  -0.016283
    20  H    0.383257   0.592267  -0.029595  -0.015205   0.004978   0.000364
    21  H    0.359242  -0.029595   0.671620  -0.039507  -0.011643  -0.007342
    22  O    0.353550  -0.015205  -0.039507   7.893757   0.328717  -0.046065
    23  C   -0.067604   0.004978  -0.011643   0.328717   4.536451   0.375715
    24  H   -0.016283   0.000364  -0.007342  -0.046065   0.375715   0.698678
    25  C    0.006285  -0.000433   0.002858  -0.036135   0.441055  -0.045169
    26  H   -0.000256   0.000013   0.000006   0.003204  -0.012110  -0.004815
    27  H   -0.000247   0.000006  -0.000084   0.003934  -0.012392  -0.003924
    28  H   -0.000060   0.000003  -0.000246   0.000868  -0.017732   0.008942
    29  O   -0.016420  -0.000058   0.038817  -0.049691   0.344445  -0.035014
    30  H    0.002379  -0.000021  -0.004342   0.003727  -0.046456   0.010746
              25         26         27         28         29         30
     1  C    0.000000   0.000000   0.000000  -0.000000   0.000000   0.000000
     2  C   -0.000001  -0.000000   0.000001  -0.000000   0.000044  -0.000005
     3  C   -0.000993   0.000054  -0.000067   0.000132  -0.001805   0.000894
     4  C   -0.000009   0.000002   0.000120   0.000003   0.000065  -0.000012
     5  C   -0.000015  -0.000000   0.000004   0.000000  -0.000003   0.000001
     6  H   -0.000006  -0.000000   0.000010   0.000001   0.000004  -0.000001
     7  H   -0.000000   0.000000   0.000000   0.000000  -0.000000   0.000000
     8  C    0.000002  -0.000002  -0.000006   0.000000   0.000003   0.000002
     9  H   -0.000000   0.000000  -0.000000  -0.000000   0.000000  -0.000000
    10  C    0.000000  -0.000000  -0.000000   0.000000   0.000000   0.000000
    11  C    0.000000  -0.000000  -0.000000  -0.000000   0.000001  -0.000000
    12  O    0.000000   0.000000   0.000000   0.000000  -0.000000   0.000000
    13  O    0.000000   0.000000  -0.000000   0.000000  -0.000000   0.000000
    14  H    0.000000  -0.000000  -0.000000  -0.000000   0.000000  -0.000000
    15  H   -0.000011   0.000000   0.000002   0.000001  -0.000542   0.000014
    16  O    0.000054  -0.000000  -0.000002  -0.000005   0.000030  -0.000043
    17  N   -0.000000   0.000000  -0.000000   0.000000   0.000000   0.000000
    18  H   -0.000000   0.000000  -0.000000   0.000000   0.000000   0.000000
    19  C    0.006285  -0.000256  -0.000247  -0.000060  -0.016420   0.002379
    20  H   -0.000433   0.000013   0.000006   0.000003  -0.000058  -0.000021
    21  H    0.002858   0.000006  -0.000084  -0.000246   0.038817  -0.004342
    22  O   -0.036135   0.003204   0.003934   0.000868  -0.049691   0.003727
    23  C    0.441055  -0.012110  -0.012392  -0.017732   0.344445  -0.046456
    24  H   -0.045169  -0.004815  -0.003924   0.008942  -0.035014   0.010746
    25  C    4.561399   0.385729   0.371420   0.375042  -0.042143  -0.007735
    26  H    0.385729   0.617187  -0.019945  -0.024556   0.002577  -0.000758
    27  H    0.371420  -0.019945   0.629935  -0.021737   0.004551  -0.000200
    28  H    0.375042  -0.024556  -0.021737   0.639000  -0.002187   0.006101
    29  O   -0.042143   0.002577   0.004551  -0.002187   7.712712   0.337892
    30  H   -0.007735  -0.000758  -0.000200   0.006101   0.337892   0.531705
 Mulliken charges:
               1
     1  C   -0.079384
     2  C   -0.039158
     3  C   -0.078455
     4  C    0.045222
     5  C    0.021639
     6  H    0.014716
     7  H    0.023464
     8  C    0.091605
     9  H    0.045088
    10  C    0.224462
    11  C    0.232344
    12  O   -0.250956
    13  O   -0.245238
    14  H    0.033258
    15  H    0.029855
    16  O   -0.204672
    17  N   -0.163437
    18  H    0.120471
    19  C    0.215052
    20  H    0.071477
    21  H    0.036252
    22  O   -0.332271
    23  C    0.149026
    24  H    0.039273
    25  C   -0.011195
    26  H    0.053672
    27  H    0.048621
    28  H    0.036431
    29  O   -0.293277
    30  H    0.166113
 Sum of Mulliken charges =  -0.00000
 Mulliken charges with hydrogens summed into heavy atoms:
               1
     1  C   -0.046126
     2  C   -0.009303
     3  C   -0.078455
     4  C    0.059938
     5  C    0.045103
     8  C    0.136693
    10  C    0.224462
    11  C    0.232344
    12  O   -0.250956
    13  O   -0.245238
    16  O   -0.204672
    17  N   -0.042966
    19  C    0.322781
    22  O   -0.332271
    23  C    0.188299
    25  C    0.127529
    29  O   -0.127164
 APT charges:
               1
     1  C   -0.234449
     2  C   -0.338034
     3  C   -0.197628
     4  C   -0.455103
     5  C   -0.315346
     6  H    0.385724
     7  H    0.598165
     8  C   -0.543189
     9  H    0.658164
    10  C   -1.336480
    11  C   -0.647499
    12  O    0.305114
    13  O    1.131169
    14  H    0.344898
    15  H    0.133163
    16  O   -0.145383
    17  N   -0.470523
    18  H    0.899744
    19  C   -0.318484
    20  H    0.303136
    21  H    0.242758
    22  O   -0.161684
    23  C   -0.425621
    24  H   -0.069382
    25  C   -0.732962
    26  H    0.635954
    27  H    0.174580
    28  H    0.559116
    29  O   -0.661042
    30  H    0.681124
 Sum of APT charges =  -0.00000
 APT charges with hydrogens summed into heavy atoms:
               1
     1  C    0.110448
     2  C   -0.204871
     3  C   -0.197628
     4  C   -0.069379
     5  C    0.282820
     8  C    0.114975
    10  C   -1.336480
    11  C   -0.647499
    12  O    0.305114
    13  O    1.131169
    16  O   -0.145383
    17  N    0.429221
    19  C    0.227410
    22  O   -0.161684
    23  C   -0.495002
    25  C    0.636688
    29  O    0.020081
 Electronic spatial extent (au):  <R**2>=           4176.6940
 Charge=              0.0000 electrons
 Dipole moment (field-independent basis, Debye):
    X=             -2.1988    Y=             -1.1705    Z=              0.7836  Tot=              2.6113
 Quadrupole moment (field-independent basis, Debye-Ang):
   XX=           -101.1011   YY=            -99.4292   ZZ=            -96.4920
   XY=              0.5994   XZ=              2.7794   YZ=             -1.6181
 Traceless Quadrupole moment (field-independent basis, Debye-Ang):
   XX=             -2.0937   YY=             -0.4217   ZZ=              2.5154
   XY=              0.5994   XZ=              2.7794   YZ=             -1.6181
 Octapole moment (field-independent basis, Debye-Ang**2):
  XXX=           -103.1422  YYY=            -28.5108  ZZZ=              6.7048  XYY=            -17.4744
  XXY=             52.0380  XXZ=             15.2724  XZZ=             15.9978  YZZ=              2.5778
  YYZ=            -10.0777  XYZ=             13.1595
 Hexadecapole moment (field-independent basis, Debye-Ang**3):
 XXXX=          -3931.1721 YYYY=           -936.6864 ZZZZ=           -446.9395 XXXY=            136.8066
 XXXZ=             82.5767 YYYX=            -72.7342 YYYZ=              7.3141 ZZZX=             21.9074
 ZZZY=              8.5144 XXYY=           -768.2472 XXZZ=           -734.9781 YYZZ=           -211.4468
 XXYZ=            -16.9573 YYXZ=             25.1689 ZZXY=            -15.7728
 N-N= 1.291503787838D+03 E-N=-4.587777991038D+03  KE= 8.529030908892D+02
  Exact polarizability:   0.000   0.000   0.000   0.000   0.000   0.000
 Approx polarizability: 179.518 -26.986 191.584  -1.521   5.654 151.661
 Calling FoFJK, ICntrl=    100147 FMM=F ISym2X=0 I1Cent= 0 IOpClX= 0 NMat=1 NMatS=1 NMatT=0.
 ***** Axes restored to original set *****
 -------------------------------------------------------------------
 Center     Atomic                   Forces (Hartrees/Bohr)
 Number     Number              X              Y              Z
 -------------------------------------------------------------------
      1        6           0.006410257   -0.002142648    0.017155725
      2        6          -0.000192258   -0.011994817    0.016929948
      3        6           0.013253020   -0.003526296   -0.010145296
      4        6          -0.001139522    0.014255978   -0.000668115
      5        6          -0.008587610    0.000182981   -0.008164607
      6        1          -0.002219259   -0.005869585   -0.004154364
      7        1           0.006373600    0.002638186   -0.001650198
      8        6          -0.006462338   -0.004332390   -0.006468633
      9        1          -0.011572629    0.000998086    0.008243232
     10        6           0.024849660    0.017517312    0.005789190
     11        6          -0.018868876   -0.015597352    0.004895766
     12        8           0.007696536   -0.002666214   -0.005859505
     13        8          -0.002043105   -0.008253051   -0.005168898
     14        1           0.009485873   -0.007149316    0.004119050
     15        1           0.002996846   -0.011904743    0.002451508
     16        8          -0.015611196    0.027570306   -0.019331107
     17        7           0.001552869   -0.004638170   -0.008752307
     18        1          -0.000070471    0.000717598   -0.001823004
     19        6          -0.006620993    0.009334457    0.012483262
     20        1           0.005651040    0.001173630   -0.002192016
     21        1           0.003808856   -0.001700031    0.004764510
     22        8          -0.014556073    0.005492000    0.001081813
     23        6           0.000545189    0.006395401    0.001343497
     24        1          -0.002779592    0.002459786    0.005879249
     25        6           0.006980664   -0.009790109   -0.001664473
     26        1           0.001500421    0.002745330    0.005375733
     27        1           0.003119010    0.001294179   -0.005168687
     28        1          -0.006558429   -0.006190649   -0.001304065
     29        8          -0.002088443   -0.006312642   -0.005198632
     30        1           0.005146955    0.009292783   -0.002798577
 -------------------------------------------------------------------
 Cartesian Forces:  Max     0.027570306 RMS     0.008560463
 FormGI is forming the generalized inverse of G from B-inverse, IUseBI=4.

 GradGradGradGradGradGradGradGradGradGradGradGradGradGradGradGradGradGrad
 Berny optimization.
 Internal  Forces:  Max     0.020165894 RMS     0.005226340
 Search for a saddle point.
 Step number   1 out of a maximum of  180
 All quantities printed in internal units (Hartrees-Bohrs-Radians)
 Swapping is turned off.
 Second derivative matrix not updated -- analytic derivatives used.
 ITU=  0
     Eigenvalues ---   -0.00843   0.00045   0.00228   0.00344   0.00433
     Eigenvalues ---    0.00584   0.00633   0.00761   0.00881   0.01043
     Eigenvalues ---    0.01096   0.01214   0.01381   0.01521   0.01619
     Eigenvalues ---    0.01701   0.02208   0.02936   0.03261   0.03525
     Eigenvalues ---    0.03812   0.04112   0.04215   0.04270   0.04416
     Eigenvalues ---    0.04532   0.05133   0.05272   0.05675   0.05944
     Eigenvalues ---    0.06425   0.06652   0.07000   0.07501   0.08386
     Eigenvalues ---    0.09214   0.09862   0.09966   0.10311   0.11838
     Eigenvalues ---    0.12450   0.12811   0.13860   0.14048   0.15803
     Eigenvalues ---    0.16106   0.16801   0.18609   0.19539   0.20767
     Eigenvalues ---    0.23312   0.23387   0.25403   0.25624   0.27539
     Eigenvalues ---    0.28185   0.29677   0.30154   0.30643   0.30917
     Eigenvalues ---    0.32307   0.33316   0.33390   0.33585   0.35080
     Eigenvalues ---    0.35362   0.35563   0.36661   0.36859   0.37087
     Eigenvalues ---    0.37273   0.37431   0.38819   0.39790   0.40101
     Eigenvalues ---    0.40309   0.40853   0.47920   0.48177   0.48821
     Eigenvalues ---    0.51427   0.57364   0.89026   0.90032
 Eigenvectors required to have negative eigenvalues:
                          R2        R5        D8        D74       D45
   1                    0.42374   0.39662  -0.19725  -0.19543   0.19025
                          D6        D34       D20       D3        D21
   1                    0.17333  -0.16549   0.16479   0.16165   0.16082
 RFO step:  Lambda0=4.441147263D-03 Lambda=-3.29794126D-02.
 Linear search not attempted -- option 19 set.
 Maximum step size (   0.300) exceeded in Quadratic search.
    -- Step size scaled by   0.678
 Iteration  1 RMS(Cart)=  0.06443945 RMS(Int)=  0.00189622
 Iteration  2 RMS(Cart)=  0.00313615 RMS(Int)=  0.00096724
 Iteration  3 RMS(Cart)=  0.00000470 RMS(Int)=  0.00096724
 Iteration  4 RMS(Cart)=  0.00000000 RMS(Int)=  0.00096724
 Variable       Old X    -DE/DX   Delta X   Delta X   Delta X     New X
                                 (Linear)    (Quad)   (Total)
    R1        2.56327   0.01226   0.00000   0.03864   0.03870   2.60198
    R2        4.09737   0.01399   0.00000  -0.09390  -0.09355   4.00382
    R3        2.77800   0.01318   0.00000   0.02559   0.02565   2.80365
    R4        2.04595  -0.00265   0.00000  -0.00169  -0.00106   2.04489
    R5        4.04342   0.01792   0.00000  -0.05779  -0.05793   3.98549
    R6        2.77784   0.01256   0.00000   0.01983   0.01981   2.79765
    R7        2.04639  -0.00289   0.00000  -0.00129  -0.00066   2.04573
    R8        2.62630   0.00401   0.00000   0.02658   0.02648   2.65279
    R9        4.17776   0.01434   0.00000   0.09014   0.08943   4.26719
   R10        2.61452  -0.00506   0.00000  -0.01304  -0.01288   2.60164
   R11        2.84111  -0.00181   0.00000  -0.00705  -0.00705   2.83406
   R12        2.62806  -0.00195   0.00000  -0.01818  -0.01867   2.60938
   R13        2.03492   0.00688   0.00000   0.01095   0.01095   2.04586
   R14        2.03623   0.00629   0.00000   0.01001   0.01001   2.04625
   R15        2.61166   0.00641   0.00000   0.03222   0.03203   2.64369
   R16        2.05638  -0.00264   0.00000  -0.00492  -0.00549   2.05089
   R17        4.13125   0.01166   0.00000   0.07311   0.07232   4.20357
   R18        2.59386  -0.00844   0.00000  -0.01668  -0.01607   2.57779
   R19        4.12035   0.00337   0.00000   0.07497   0.07595   4.19630
   R20        2.28952  -0.00447   0.00000  -0.00703  -0.00703   2.28249
   R21        2.61507   0.01403   0.00000   0.01773   0.01769   2.63277
   R22        2.28974  -0.00108   0.00000  -0.00424  -0.00424   2.28551
   R23        2.61261   0.01244   0.00000   0.01608   0.01599   2.62860
   R24        1.91209   0.00070   0.00000   0.00172   0.00172   1.91381
   R25        2.06971   0.00065   0.00000   0.00345   0.00345   2.07315
   R26        2.06834   0.00406   0.00000   0.00793   0.00793   2.07627
   R27        2.66378   0.01031   0.00000   0.00625   0.00625   2.67003
   R28        2.68102  -0.00395   0.00000  -0.00989  -0.00989   2.67113
   R29        2.08524   0.00003   0.00000  -0.00016  -0.00016   2.08509
   R30        2.87642  -0.00849   0.00000  -0.01347  -0.01347   2.86296
   R31        2.67002  -0.00903   0.00000  -0.01452  -0.01452   2.65550
   R32        2.05855   0.00468   0.00000   0.00850   0.00850   2.06705
   R33        2.05860   0.00596   0.00000   0.00934   0.00934   2.06794
   R34        2.05640   0.00907   0.00000   0.01462   0.01462   2.07102
   R35        1.85114  -0.01001   0.00000  -0.01251  -0.01251   1.83863
    A1        1.73068  -0.00244   0.00000   0.00419   0.00369   1.73437
    A2        1.88325   0.00252   0.00000   0.00145   0.00125   1.88451
    A3        2.19291  -0.00208   0.00000   0.00451   0.00280   2.19571
    A4        1.94319   0.00074   0.00000  -0.01745  -0.01686   1.92633
    A5        2.17028  -0.00017   0.00000  -0.02720  -0.02841   2.14187
    A6        1.79471  -0.00443   0.00000  -0.01525  -0.01593   1.77878
    A7        1.89394   0.00199   0.00000   0.00172   0.00170   1.89565
    A8        2.17141   0.00037   0.00000   0.00267   0.00132   2.17273
    A9        1.82445   0.00288   0.00000   0.00672   0.00744   1.83189
   A10        2.18033  -0.00194   0.00000  -0.02538  -0.02694   2.15340
   A11        1.71641   0.00304   0.00000   0.02737   0.02733   1.74373
   A12        1.40079   0.00535   0.00000   0.06413   0.06498   1.46577
   A13        1.76191  -0.00385   0.00000   0.01874   0.01877   1.78068
   A14        2.21276   0.00014   0.00000   0.02007   0.01874   2.23150
   A15        1.91088   0.00006   0.00000  -0.00348  -0.00668   1.90419
   A16        2.14424   0.00681   0.00000   0.03552   0.03247   2.17671
   A17        1.33363   0.00619   0.00000   0.07219   0.07321   1.40684
   A18        1.40906  -0.00518   0.00000  -0.00871  -0.00581   1.40325
   A19        2.20841  -0.00799   0.00000  -0.05729  -0.05890   2.14951
   A20        1.86682  -0.00095   0.00000  -0.00638  -0.00682   1.86000
   A21        2.19865  -0.00212   0.00000  -0.01247  -0.01242   2.18623
   A22        2.21743   0.00307   0.00000   0.01825   0.01837   2.23580
   A23        2.21134   0.00475   0.00000   0.02159   0.02172   2.23306
   A24        1.85804  -0.00312   0.00000  -0.00886  -0.00934   1.84870
   A25        2.21191  -0.00160   0.00000  -0.01424  -0.01412   2.19779
   A26        1.67130   0.00322   0.00000   0.03489   0.03493   1.70624
   A27        1.74625  -0.00402   0.00000   0.01673   0.01609   1.76234
   A28        1.45026   0.00606   0.00000   0.06490   0.06527   1.51553
   A29        2.17723   0.00420   0.00000   0.02993   0.02741   2.20463
   A30        2.13084   0.00107   0.00000   0.03571   0.03417   2.16501
   A31        1.92836   0.00132   0.00000  -0.00392  -0.00722   1.92115
   A32        2.15978  -0.00655   0.00000  -0.05031  -0.05234   2.10744
   A33        1.48457   0.00454   0.00000   0.05511   0.05601   1.54058
   A34        2.20271   0.01331   0.00000   0.03285   0.03282   2.23554
   A35        1.86097  -0.00628   0.00000  -0.01419  -0.01422   1.84675
   A36        2.21950  -0.00703   0.00000  -0.01867  -0.01869   2.20081
   A37        2.19646   0.01404   0.00000   0.03343   0.03341   2.22987
   A38        1.85532  -0.00525   0.00000  -0.01140  -0.01158   1.84374
   A39        2.23135  -0.00881   0.00000  -0.02224  -0.02222   2.20913
   A40        1.73737   0.00168   0.00000  -0.07495  -0.07481   1.66256
   A41        1.83390   0.00098   0.00000  -0.01007  -0.01261   1.82129
   A42        1.93130   0.00702   0.00000   0.02245   0.02228   1.95358
   A43        2.17555  -0.00374   0.00000  -0.01206  -0.01201   2.16354
   A44        2.17632  -0.00328   0.00000  -0.01047  -0.01042   2.16589
   A45        1.92261  -0.00752   0.00000  -0.03232  -0.03246   1.89015
   A46        1.94086  -0.00238   0.00000  -0.01212  -0.01239   1.92847
   A47        1.95250   0.00353   0.00000   0.01213   0.01213   1.96463
   A48        1.88825   0.00303   0.00000   0.01202   0.01162   1.89987
   A49        1.87691   0.00062   0.00000  -0.00158  -0.00155   1.87536
   A50        1.88020   0.00305   0.00000   0.02342   0.02343   1.90363
   A51        1.92325   0.02017   0.00000   0.03124   0.03124   1.95449
   A52        1.85599   0.00763   0.00000   0.03376   0.03401   1.89001
   A53        1.93476  -0.01316   0.00000  -0.04351  -0.04350   1.89126
   A54        1.95536   0.00292   0.00000  -0.00594  -0.00619   1.94917
   A55        1.91755   0.00251   0.00000   0.01460   0.01482   1.93236
   A56        1.84372  -0.00301   0.00000  -0.00667  -0.00679   1.83693
   A57        1.95156   0.00397   0.00000   0.01173   0.01134   1.96289
   A58        1.93941  -0.00545   0.00000  -0.01291  -0.01295   1.92646
   A59        1.93697  -0.00119   0.00000  -0.00599  -0.00602   1.93096
   A60        1.91746   0.00030   0.00000  -0.00358  -0.00360   1.91386
   A61        1.90011   0.00304   0.00000   0.00879   0.00874   1.90885
   A62        1.88683   0.00264   0.00000   0.00972   0.00969   1.89653
   A63        1.88141   0.00097   0.00000   0.00501   0.00500   1.88641
   A64        1.89254  -0.00691   0.00000  -0.02038  -0.02038   1.87216
    D1        0.10039  -0.00091   0.00000  -0.01394  -0.01421   0.08618
    D2        2.02628   0.00108   0.00000  -0.01253  -0.01232   2.01396
    D3       -1.39472   0.00230   0.00000  -0.09307  -0.09342  -1.48814
    D4       -1.92533  -0.00150   0.00000   0.00300   0.00236  -1.92297
    D5        0.00056   0.00049   0.00000   0.00440   0.00425   0.00481
    D6        2.86274   0.00170   0.00000  -0.07614  -0.07685   2.78589
    D7        1.49546  -0.00264   0.00000   0.08639   0.08649   1.58195
    D8       -2.86184  -0.00064   0.00000   0.08780   0.08838  -2.77345
    D9        0.00035   0.00057   0.00000   0.00725   0.00728   0.00763
   D10       -1.35577  -0.00195   0.00000   0.01300   0.01244  -1.34333
   D11        2.71357  -0.00627   0.00000  -0.03307  -0.03287   2.68070
   D12        0.56420  -0.00053   0.00000   0.00992   0.00953   0.57374
   D13        0.62357  -0.00006   0.00000   0.01069   0.00987   0.63344
   D14       -1.59027  -0.00438   0.00000  -0.03538  -0.03544  -1.62572
   D15        2.54355   0.00135   0.00000   0.00761   0.00696   2.55051
   D16        3.13926  -0.00083   0.00000   0.00346   0.00298  -3.14094
   D17       -0.00096   0.00033   0.00000   0.01561   0.01538   0.01442
   D18        1.25768   0.00039   0.00000   0.00593   0.00584   1.26352
   D19       -1.88254   0.00155   0.00000   0.01808   0.01823  -1.86430
   D20       -0.27703  -0.00010   0.00000  -0.07237  -0.07199  -0.34901
   D21        2.86594   0.00105   0.00000  -0.06021  -0.05960   2.80635
   D22       -1.85874   0.00488   0.00000  -0.03338  -0.03439  -1.89312
   D23        1.60608   0.00325   0.00000   0.05768   0.05587   1.66195
   D24        1.13105   0.00221   0.00000   0.01734   0.01800   1.14906
   D25       -0.76219   0.00203   0.00000   0.01826   0.01932  -0.74287
   D26       -2.95414   0.00930   0.00000   0.07075   0.07021  -2.88394
   D27       -0.84634   0.00069   0.00000   0.01884   0.01959  -0.82675
   D28       -2.73958   0.00051   0.00000   0.01976   0.02091  -2.71867
   D29        1.35165   0.00778   0.00000   0.07225   0.07179   1.42345
   D30       -3.13045   0.00128   0.00000  -0.00351  -0.00277  -3.13322
   D31        0.00004  -0.00113   0.00000  -0.02284  -0.02232  -0.02229
   D32       -1.22470  -0.00165   0.00000  -0.01700  -0.01673  -1.24143
   D33        1.90578  -0.00405   0.00000  -0.03633  -0.03628   1.86951
   D34        0.29233  -0.00041   0.00000   0.07192   0.07169   0.36402
   D35       -2.86037  -0.00281   0.00000   0.05260   0.05214  -2.80823
   D36       -1.31532  -0.00251   0.00000   0.00436   0.00339  -1.31193
   D37        1.80186  -0.00221   0.00000  -0.02057  -0.02048   1.78138
   D38       -1.39852  -0.00384   0.00000  -0.01531  -0.01598  -1.41450
   D39        1.71866  -0.00354   0.00000  -0.04025  -0.03985   1.67881
   D40        0.12561   0.00423   0.00000   0.08158   0.08110   0.20671
   D41       -3.04039   0.00453   0.00000   0.05665   0.05723  -2.98316
   D42        3.06790  -0.00249   0.00000  -0.05242  -0.05544   3.01246
   D43       -0.09810  -0.00219   0.00000  -0.07735  -0.07931  -0.17741
   D44        1.45847  -0.00190   0.00000  -0.07743  -0.07674   1.38173
   D45       -0.20789  -0.00696   0.00000  -0.12892  -0.12831  -0.33620
   D46        1.96687  -0.00518   0.00000  -0.08845  -0.08758   1.87930
   D47       -3.14100  -0.00210   0.00000  -0.00241  -0.00728   3.13491
   D48       -1.10270  -0.00071   0.00000   0.01719   0.01550  -1.08719
   D49        0.99062  -0.00342   0.00000   0.00310   0.00159   0.99221
   D50        3.09386   0.00124   0.00000   0.03293   0.03131   3.12518
   D51        0.77372   0.00304   0.00000   0.07989   0.07990   0.85362
   D52        2.86704   0.00034   0.00000   0.06580   0.06599   2.93303
   D53       -1.31291   0.00500   0.00000   0.09563   0.09572  -1.21719
   D54       -1.46181   0.00441   0.00000   0.05067   0.05014  -1.41167
   D55        0.63152   0.00171   0.00000   0.03658   0.03622   0.66774
   D56        2.73476   0.00637   0.00000   0.06642   0.06595   2.80070
   D57       -2.60230  -0.00349   0.00000  -0.06870  -0.06682  -2.66913
   D58       -0.50898  -0.00619   0.00000  -0.08279  -0.08073  -0.58972
   D59        1.59426  -0.00153   0.00000  -0.05296  -0.05101   1.54325
   D60        3.08766   0.00011   0.00000  -0.02667  -0.02641   3.06125
   D61        0.00878  -0.00024   0.00000  -0.00098  -0.00111   0.00767
   D62       -0.02919  -0.00010   0.00000  -0.00082  -0.00105  -0.03024
   D63       -3.10806  -0.00045   0.00000   0.02487   0.02424  -3.08382
   D64        1.33710   0.00357   0.00000   0.00044   0.00109   1.33819
   D65       -3.08788   0.00225   0.00000   0.05701   0.05913  -3.02876
   D66        1.55466   0.00295   0.00000   0.00187   0.00271   1.55736
   D67       -0.14223  -0.00417   0.00000  -0.08149  -0.08082  -0.22305
[...]
 ,0.00001922,-0.00007918,0.00005826,-0.00005128,-0.00024764,0.00068552,
 0.00038430,0.00008976,0.00015966,0.00007819,0.00001502,-0.00001306,-0.
 00000229,-0.00529525,0.00241400,-0.00232070,0.00029599,0.00016494,0.00
 018097,0.00033742,-0.00038671,0.00050224,-0.01492807,-0.03693896,-0.01
 103550,-0.11733371,-0.14214184,-0.00874987,0.13098538,0.16568181,-0.00
 002322,-0.00024322,-0.00005809,0.00025306,-0.00002229,0.00002798,0.000
 24123,0.00034158,0.00090546,-0.00023500,-0.00010112,-0.00018079,0.0003
 0235,0.00025683,0.00006000,0.00002052,-0.00006156,-0.00002632,0.000020
 91,-0.00000904,-0.00002120,-0.00047245,-0.00001267,0.00014639,0.000027
 55,-0.00000132,0.00000412,-0.00002160,-0.00003171,-0.00003049,-0.00006
 261,-0.00002030,-0.00000675,0.00005806,0.00000716,0.00001222,0.0000249
 0,0.00000931,-0.00000032,-0.00002606,0.00004852,-0.00001125,-0.0000481
 2,0.00005521,-0.00003325,-0.00017895,0.00005589,-0.00058521,0.00005541
 ,0.00000941,-0.00003002,-0.00000277,0.00000283,0.00000407,-0.00070829,
 0.00114130,-0.00082162,0.00006909,-0.00006779,-0.00007972,0.00028263,0
 .00001661,0.00020628,-0.00606926,-0.01456852,0.00100939,-0.02867972,-0
 .01713999,-0.05174080,0.01483608,0.01575122,0.06750086,-0.00010735,0.0
 0006018,0.00006567,-0.00003813,0.00002552,0.00005155,0.00032613,-0.000
 18255,-0.00033340,-0.00002340,0.00001039,-0.00001155,-0.00003964,-0.00
 003972,0.00005462,-0.00005428,0.00005414,0.00000586,-0.00001176,0.0000
 0039,0.00000014,0.00028821,0.00007452,-0.00013424,-0.00000964,0.000003
 12,0.00000990,0.00013746,0.00000977,-0.00010490,0.00009380,-0.00005466
 ,-0.00011324,-0.00004394,0.00005564,0.00004945,-0.00011536,-0.00002890
 ,0.00004812,-0.00000337,-0.00000972,0.00001041,0.00000305,-0.00000884,
 0.00003347,-0.00047339,0.00021813,0.00020367,-0.00007345,0.00000054,0.
 00005557,0.00000978,-0.00001036,-0.00001407,0.00100557,0.00143967,0.00
 072535,-0.00024839,0.00017333,-0.00025452,-0.00021133,0.00006198,0.000
 16006,-0.01276941,0.01335177,-0.00873775,-0.15874983,0.03149821,-0.072
 28900,-0.01437197,0.00936694,-0.01647931,0.54475948,-0.00009240,-0.000
 07375,0.00003008,0.00019372,0.00007524,0.00001314,-0.00035169,-0.00113
 170,-0.00034907,0.00005629,0.00005942,0.00006503,0.00004231,0.00017936
 ,0.00008689,-0.00006012,-0.00000701,0.00005865,0.00002879,0.00000835,0
 .00001877,0.00068920,0.00031933,-0.00022518,-0.00000951,0.00002938,-0.
 00001302,-0.00009257,-0.00007055,-0.00008550,-0.00030941,-0.00002518,0
 .00008822,0.00017683,-0.00000166,-0.00000972,0.00010253,0.00005265,-0.
 00001583,0.00002183,0.00000290,0.00000318,-0.00010171,0.00008701,-0.00
 010403,-0.00048328,0.00047504,0.00029362,0.00018081,0.00012023,-0.0000
 2037,-0.00000305,0.00001172,0.00001269,-0.00065214,-0.00520884,-0.0024
 4216,0.00134263,-0.00058508,0.00088733,0.00025559,-0.00020183,0.000322
 45,0.03894608,-0.02786659,0.02255900,0.01765465,-0.09027962,0.02558872
 ,-0.01226636,0.00909881,-0.01201194,0.00680613,0.58974972,0.00003174,-
 0.00010340,-0.00003199,0.00013125,0.00001111,-0.00002886,-0.00052713,-
 0.00002916,0.00023323,0.00002098,0.00001589,0.00006504,0.00005523,0.00
 007785,-0.00000491,0.00006427,-0.00007547,0.00000805,0.00002410,0.0000
 0025,0.00000299,0.00002381,0.00007165,0.00004790,0.00000816,0.00001121
 ,-0.00002192,-0.00006998,-0.00002297,0.00002471,-0.00012258,0.00001478
 ,0.00008603,0.00006948,-0.00003041,-0.00002972,0.00006744,0.00002379,-
 0.00002344,0.00001024,0.00001490,-0.00000901,-0.00002697,0.00002981,-0
 .00005484,0.00014705,-0.00002255,-0.00017725,0.00007933,0.00003467,-0.
 00004053,-0.00000224,0.00000581,0.00001061,0.00067094,-0.00324298,0.00
 000506,0.00072430,-0.00050873,0.00050018,0.00051860,-0.00039493,0.0000
 1025,0.00672170,-0.00447711,0.00916641,-0.06552350,0.03436739,-0.13436
 840,-0.00256087,0.00132223,-0.00050312,-0.04501769,0.02150863,0.563468
 69,-0.00002869,0.00001881,0.00000632,-0.00001617,-0.00001694,0.0000254
 4,0.00022323,0.00012276,0.00004169,-0.00005270,-0.00001300,-0.00003336
 ,0.00000391,-0.00004755,0.00001934,0.00002179,-0.00000284,-0.00002443,
 -0.00001379,0.00000253,-0.00000188,-0.00010055,-0.00002041,0.00000994,
 -0.00000941,-0.00000601,0.00000073,0.00008731,0.00002616,-0.00002434,0
 .00010837,-0.00000911,-0.00005606,-0.00006217,0.00002084,0.00001794,-0
 .00007459,-0.00002931,0.00002312,-0.00000993,0.00000476,0.00000109,0.0
 0002993,-0.00002231,0.00003408,-0.00003469,-0.00008443,-0.00001308,-0.
 00007398,-0.00003074,0.00002183,0.00000506,-0.00000715,-0.00000684,0.0
 0108252,0.00125519,0.00046985,-0.00040138,0.00017904,-0.00024791,-0.00
 015842,0.00007392,-0.00013060,-0.00458528,0.00304468,-0.00398180,-0.00
 636325,0.01826864,0.01172100,0.00013941,-0.00056192,0.00039451,-0.0837
 2713,0.08901607,0.03057610,0.08818219,0.00003075,-0.00001737,-0.000012
 89,0.00002837,0.00000545,-0.00003392,-0.00003423,-0.00014370,0.0000853
 5,0.00002265,0.00000066,0.00002790,0.00000757,0.00003431,0.00000031,-0
 .00000711,-0.00000892,0.00001442,0.00000664,0.00000035,0.00000207,0.00
 005566,0.00002953,-0.00001296,0.00000078,0.00000918,-0.00000770,-0.000
 08404,-0.00002021,0.00003100,-0.00008712,0.00001959,0.00006019,0.00004
 497,-0.00002445,-0.00001422,0.00007261,0.00002365,-0.00002176,0.000008
 71,-0.00000130,-0.00000306,-0.00002222,0.00001630,-0.00002585,0.000046
 33,0.00000268,-0.00001112,0.00006397,0.00002200,-0.00002023,-0.0000070
 1,0.00000812,0.00000530,-0.00052997,0.00006424,-0.00060881,0.00014063,
 -0.00005969,0.00011199,0.00012378,-0.00005429,0.00008690,0.00327172,-0
 .00050978,0.00219851,0.00026487,-0.00936258,-0.00699601,0.00016249,0.0
 0045222,0.00049343,0.09107431,-0.26114411,-0.07720107,-0.09939457,0.27
 941731,0.00000573,0.00003309,0.00001056,-0.00005445,-0.00000178,-0.000
 00207,0.00011809,0.00014218,-0.00008556,0.00001026,-0.00001890,-0.0000
 2854,-0.00003370,-0.00003547,-0.00000711,-0.00003958,0.00002739,-0.000
 00279,-0.00000440,-0.00000485,-0.00000286,-0.00004924,-0.00004369,0.00
 002552,-0.00000200,-0.00000452,0.00001072,0.00000128,-0.00000133,0.000
 00322,0.00003221,-0.00002182,-0.00003543,-0.00001346,0.00001624,0.0000
 2004,-0.00000924,-0.00000176,0.00000326,-0.00000299,-0.00000599,0.0000
 0242,0.00001295,-0.00001372,0.00001948,0.00000150,-0.00000634,0.000023
 39,-0.00001828,-0.00000775,0.00001309,-0.00000244,-0.00000137,-0.00000
 393,-0.00023021,0.00113963,0.00064085,-0.00031398,0.00015747,-0.000177
 48,0.00001277,-0.00000352,-0.00001591,-0.00425703,0.00259937,-0.002551
 49,-0.00548668,0.01918270,0.00690274,0.00039988,-0.00058383,0.00052874
 ,0.03407263,-0.08164906,-0.07553983,-0.03403673,0.08504499,0.07718911,
 0.00003866,0.00003065,0.00000587,-0.00001235,-0.00001730,-0.00002127,0
 .00005946,0.00000173,-0.00007459,0.00012658,-0.00001308,0.00005411,-0.
 00007377,-0.00010242,-0.00003048,-0.00004409,0.00006334,0.00002794,-0.
 00000959,0.00000495,0.00000244,0.00000248,-0.00003058,0.00000391,-0.00
 000522,0.00000328,0.00000224,-0.00006600,0.00001888,0.00006152,-0.0000
 0461,0.00006153,0.00005650,-0.00001249,-0.00004883,-0.00003014,0.00004
 576,0.00000459,-0.00002131,0.00000884,-0.00001306,-0.00000089,0.000005
 26,-0.00000944,-0.00000556,0.00001512,-0.00000718,0.00004302,0.0000110
 7,-0.00001875,-0.00001561,-0.00000617,0.00000758,0.00000397,0.00000311
 ,-0.00017010,0.00004265,0.00004489,-0.00002969,0.00004091,0.00012975,-
 0.00009057,-0.00004222,0.00042516,-0.00064496,0.00050915,0.01170238,0.
 00204250,-0.01875379,0.00057105,-0.00070672,0.00059062,-0.09704057,-0.
 01355147,0.10942220,-0.00517676,-0.00278561,0.00852432,0.10049055,-0.0
 0000908,-0.00000637,-0.00001405,0.00000162,-0.00001869,0.00001035,0.00
 002469,0.00003575,0.00009653,-0.00000515,0.00001517,0.00003622,0.00003
 502,-0.00000847,-0.00000939,0.00007840,-0.00003248,-0.00002161,-0.0000
 0772,0.00000745,0.00000113,-0.00006510,-0.00000151,-0.00000001,-0.0000
 0094,-0.00000181,-0.00000841,0.00004915,0.00002769,0.00000100,0.000057
 40,0.00003597,0.00001365,-0.00004086,-0.00001507,-0.00002576,-0.000035
 30,-0.00001955,0.00000623,-0.00000534,0.00000651,-0.00000135,0.0000060
 0,-0.00000279,0.00000812,0.00000544,-0.00005954,-0.00005986,-0.0000368
 4,-0.00002646,-0.00000854,0.00000653,-0.00000270,0.00000127,0.00014042
 ,0.00005912,-0.00021994,-0.00001169,0.00000514,0.00000862,-0.00017752,
 0.00010304,-0.00003471,0.00021694,0.00004286,-0.00064354,-0.00714446,-
 0.00300470,0.00816469,0.00018472,0.00019289,-0.00037692,-0.01271354,-0
 .04864867,0.02877487,0.01051009,0.00536960,-0.02476244,0.01447856,0.04
 770128,0.00001474,0.00004894,0.00001552,-0.00003518,-0.00001282,-0.000
 01120,0.00009187,0.00002004,-0.00012016,0.00002194,0.00002570,-0.00000
 522,-0.00006303,-0.00008005,-0.00000477,-0.00004635,0.00004441,0.00001
 239,-0.00001733,0.00000849,0.00000245,0.00003079,-0.00001735,-0.000031
 70,-0.00000734,0.00000278,-0.00000086,-0.00002258,0.00001570,0.0000252
 3,0.00001630,0.00003373,0.00001747,-0.00001953,-0.00002868,-0.00000461
 ,0.00001244,-0.00000369,-0.00000281,0.00001007,-0.00001208,-0.00000051
 ,0.00001719,-0.00001973,0.00000297,-0.00004901,0.00000914,0.00009764,-
 0.00000962,-0.00001479,0.00000783,-0.00000510,0.00000545,-0.00000245,-
 0.00032100,0.00008159,0.00007179,-0.00002917,-0.00000610,0.00001982,0.
 00021710,-0.00015960,0.00012606,-0.00000376,-0.00078686,0.00193652,0.0
 1485719,-0.00015192,-0.01658129,-0.00036694,-0.00032857,0.00055285,0.1
 0454313,0.03066270,-0.27236902,0.00202183,0.00197434,-0.00639978,-0.11
 416872,-0.03242874,0.29371961,-0.00007532,-0.00001962,0.00002630,0.000
 05469,0.00003361,0.00003307,0.00010186,-0.00037821,-0.00005380,-0.0000
 4745,0.00000396,-0.00001032,0.00003147,0.00007873,0.00005735,-0.000012
 51,-0.00002084,0.00000361,0.00000982,-0.00000298,0.00000375,0.00023024
 ,0.00010316,-0.00008621,-0.00000067,0.00000807,-0.00000096,0.00004225,
 -0.00003988,-0.00009163,-0.00006706,-0.00010144,-0.00006361,0.00006010
 ,0.00007359,0.00004764,-0.00002620,0.00001011,0.00002200,0.00000036,0.
 00000434,0.00000462,-0.00001777,0.00001491,-0.00000942,-0.00018475,0.0
 0019336,0.00012064,0.00002894,0.00005567,0.00002779,0.00000401,-0.0000
 0643,-0.00000268,0.00008156,0.00031806,-0.00004747,-0.00005541,0.00004
 126,-0.00001390,0.00008181,-0.00009750,0.00008301,0.00259272,-0.000603
 60,0.00073831,-0.02170191,-0.01883447,-0.00018799,-0.00184248,0.002675
 69,-0.00320274,-0.19291606,-0.13300830,-0.01624524,0.01007957,0.008646
 89,0.00077072,-0.00896300,-0.00742270,-0.00243162,0.20956164,-0.000003
 79,0.00001719,0.00000227,-0.00003420,0.00002611,-0.00000100,0.00012860
 ,-0.00003967,0.00000502,-0.00004670,-0.00001688,-0.00000226,0.00001170
 ,0.00002410,0.00000635,0.00001482,-0.00001126,-0.00000988,0.00000405,-
 0.00000469,-0.00000240,-0.00000473,-0.00003092,-0.00000215,0.00000429,
 -0.00000513,0.00000524,0.00004927,-0.00000209,-0.00002327,0.00003407,-
 0.00003485,-0.00004043,-0.00001223,0.00002819,0.00001400,-0.00003761,-
 0.00000498,0.00001125,-0.00000310,0.00000011,0.00000247,0.00000952,-0.
 00000759,0.00001327,-0.00003910,-0.00004864,-0.00001335,-0.00002782,0.
 00000170,0.00001437,0.00000536,-0.00000716,-0.00000256,0.00026018,0.00
 007101,0.00014616,-0.00008307,0.00001912,-0.00006814,-0.00005701,0.000
 02776,-0.00007878,-0.00064986,0.00160029,-0.00014235,0.00965225,0.0063
 6586,0.00210682,0.00157795,-0.00004675,0.00136719,-0.13557523,-0.16675
 291,-0.01375149,-0.02054430,-0.01514031,-0.00059439,-0.00131248,-0.002
 57529,-0.00094624,0.14681634,0.17563028,-0.00004401,-0.00000671,0.0000
 1886,0.00003357,-0.00000606,0.00002528,0.00003852,-0.00017552,-0.00013
 020,-0.00000695,0.00003266,0.00000428,0.00000208,-0.00000463,0.0000262
 0,-0.00000998,0.00002408,0.00000941,-0.00000802,0.00000615,0.00000385,
 0.00011346,0.00005393,-0.00007784,-0.00000491,0.00000384,-0.00000068,0
 .00002416,0.00000903,-0.00002609,0.00000538,0.00001100,0.00000161,-0.0
 0000689,-0.00000012,-0.00000641,-0.00001903,-0.00000753,0.00000867,0.0
 0000061,-0.00000103,0.00000196,-0.00000411,0.00000486,-0.00000243,-0.0
 0014452,0.00010391,0.00010501,-0.00000631,0.00000117,0.00000417,0.0000
 0284,-0.00000009,0.00000010,0.00018747,-0.00009414,-0.00011813,0.00002
 119,0.00001504,0.00002808,-0.00003394,-0.00001216,0.00001414,0.0022809
 6,-0.00082140,0.00049210,-0.01904638,-0.01666819,-0.00309529,-0.002617
 30,0.00201821,-0.00211256,-0.01551064,-0.01333882,-0.04730947,-0.00771
 823,-0.00524480,-0.00179672,0.02069975,0.01923438,0.00378895,0.0204746
 0,0.01469072,0.04845049,-0.00043516,0.00003026,0.00015399,0.00005760,0
 .00013721,0.00031557,0.00101149,-0.00038790,0.00009525,-0.00062421,-0.
 00022674,-0.00016324,0.00008181,0.00008482,0.00030877,0.00007586,0.000
 00982,-0.00012786,-0.00003837,-0.00001949,-0.00001526,0.00036529,0.000
 05603,-0.00022770,-0.00000728,-0.00003794,0.00004365,0.00077832,0.0000
 2167,-0.00052155,0.00042029,-0.00046646,-0.00061491,-0.00014274,0.0004
 1481,0.00023640,-0.00062348,-0.00014257,0.00022999,-0.00005227,0.00002
 986,0.00003251,0.00014387,-0.00008412,0.00016290,-0.00086578,0.0002702
 6,0.00008247,-0.00037514,0.00003068,0.00022928,0.00006584,-0.00008186,
 -0.00004565,0.00277555,0.00025014,0.00254682,-0.00008724,-0.00012761,0
 .00033209,-0.00167296,0.00050609,0.00145793,-0.00640140,0.01728215,0.0
 2391050,-0.11205977,-0.02861782,0.06442364,-0.01268640,-0.00647419,0.0
 3549193,0.01089327,0.00343873,-0.01827200,0.00087141,-0.00140542,0.000
 53164,-0.00162805,0.00162877,-0.00357985,0.00256882,0.00096365,0.00101
 285,0.45439052,-0.00000294,-0.00011718,-0.00006593,0.00006268,0.000015
 17,-0.00007570,-0.00089646,-0.00185038,-0.00083403,0.00039651,0.000376
 91,0.00021735,0.00018637,0.00033542,-0.00016364,-0.00010134,-0.0000762
 0,0.00014521,0.00009843,0.00001901,0.00003232,0.00061998,0.00023997,-0
 .00010224,0.00003081,0.00005609,-0.00002561,-0.00039834,-0.00017246,0.
 00001186,-0.00061235,-0.00006302,0.00021028,0.00037475,0.00001427,-0.0
 0004635,0.00035620,0.00015062,-0.00009487,0.00002412,-0.00000553,0.000
 00160,-0.00021402,0.00015845,-0.00013971,0.00004900,0.00056690,0.00015
 210,0.00041822,0.00019901,-0.00010492,-0.00001756,0.00002777,0.0000411
 4,-0.00231628,0.00161731,-0.00176000,-0.00008307,0.00016880,-0.0005375
 8,-0.00050042,-0.00045579,-0.00132383,0.02417412,-0.00293132,-0.043552
 06,-0.02841285,-0.08528085,0.03621887,-0.00967342,-0.00038503,0.023189
 74,-0.00670717,0.00190388,0.01501119,-0.00171656,0.00165118,-0.0010771
 1,0.00272656,0.00047584,0.00280449,0.00147412,0.00077697,-0.00029627,0
 .25100709,0.25722630,0.00031707,0.00019782,0.00001047,0.00001144,0.000
 03515,-0.00033086,0.00032259,-0.00072629,0.00058644,0.00029997,-0.0001
 1640,0.00008984,-0.00027921,-0.00014069,0.00002123,-0.00026437,0.00012
 063,0.00016848,-0.00001909,0.00001698,0.00000826,0.00067935,0.00014736
 ,-0.00009643,-0.00003809,0.00010050,-0.00007204,-0.00054582,-0.0000779
 7,0.00027577,-0.00044427,0.00026288,0.00040844,0.00016348,-0.00028840,
 -0.00005035,0.00045571,0.00013127,-0.00011975,0.00013408,-0.00006692,-
 0.00002433,-0.00001830,-0.00003530,-0.00015708,0.00017055,-0.00022064,
 0.00040779,0.00030887,0.00008619,-0.00002687,-0.00006725,0.00007201,0.
 00000248,-0.00855348,0.00386380,-0.00673308,0.00055999,-0.00037129,0.0
 0137295,0.00205619,-0.00097371,0.00265395,0.03000307,-0.03144093,-0.03
 633808,0.02314913,0.01666479,-0.22519802,0.00582823,0.00257666,-0.0088
 3015,0.01753050,0.00672059,-0.04474732,0.00106470,0.00016005,0.0013116
 3,-0.00655240,0.00284182,-0.00512726,0.00128018,-0.00203022,0.00245107
 ,-0.05668470,0.01451607,0.36677669,0.00008974,-0.00000501,-0.00005306,
 -0.00001762,-0.00002082,-0.00007381,-0.00018745,-0.00032603,-0.0002078
 2,0.00021085,0.00008456,0.00009135,0.00002231,0.00005024,-0.00009228,-
 0.00003096,-0.00000911,0.00003774,0.00002194,0.00001095,0.00000853,0.0
 0011333,0.00004075,0.00001191,0.00000315,0.00001882,-0.00001088,-0.000
 23514,-0.00003644,0.00010600,-0.00021033,0.00008139,0.00016663,0.00010
 909,-0.00008178,-0.00006577,0.00019965,0.00005719,-0.00006693,0.000013
 50,-0.00000796,-0.00000402,-0.00007415,0.00004736,-0.00005625,0.000159
 84,0.00007648,-0.00002720,0.00016367,0.00003211,-0.00006875,-0.0000168
 2,0.00002345,0.00001768,-0.00179577,0.00039554,0.00011248,0.00005509,-
 0.00002386,0.00006190,-0.00072088,0.00001160,0.00004768,0.00283502,0.0
 0046378,-0.00347267,-0.01940545,-0.01409243,0.00165686,0.00098771,0.00
 019018,0.00354124,0.00351164,0.00202982,-0.00099872,0.00005418,0.00028
 360,0.00006044,-0.00063746,0.00025251,-0.00067846,0.00038076,-0.001100
 81,0.00028379,-0.33679970,-0.23034619,-0.01086811,0.35120028,-0.000029
 66,0.00003253,0.00003169,-0.00000020,-0.00000597,0.00001154,0.00011453
 ,0.00006000,0.00010942,-0.00007375,-0.00005488,-0.00005714,-0.00001543
 ,-0.00006449,0.00003893,-0.00000213,0.00002427,-0.00001831,-0.00001863
 ,-0.00000066,-0.00000563,-0.00006168,-0.00002844,-0.00000895,-0.000010
 52,-0.00000673,0.00000700,0.00012687,0.00005894,-0.00002259,0.00017384
 ,0.00006364,-0.00004298,-0.00011490,-0.00003854,0.00001191,-0.00011054
 ,-0.00004750,0.00003101,-0.00000573,0.00000264,0.00000017,0.00003453,-
 0.00000766,0.00002759,-0.00017084,-0.00007713,0.00002254,-0.00011922,-
 0.00006218,0.00002726,0.00000661,-0.00000575,-0.00001253,0.00102002,-0
 .00064610,0.00001352,0.00008749,-0.00002875,-0.00010716,0.00025948,0.0
 0031475,0.00003535,0.00049166,0.00036842,0.00027247,-0.00646135,-0.003
 16513,-0.00288515,-0.00003252,0.00194183,0.00192214,0.00104602,-0.0001
 7556,-0.00143578,-0.00003633,-0.00063965,0.00049657,0.00010808,0.00034
 581,-0.00074028,-0.00001587,0.00014043,0.00046846,-0.23808995,-0.17464
 213,-0.01202581,0.24190015,0.17634399,-0.00002744,0.00002029,0.0000020
 5,-0.00006475,0.00001991,0.00005025,0.00005208,0.00016725,-0.00028273,
 -0.00004400,-0.00000131,0.00003180,-0.00002136,-0.00000581,-0.00000016
 ,0.00004143,-0.00001158,-0.00001964,0.00000133,-0.00000281,0.00000263,
 -0.00000800,-0.00003564,-0.00000133,0.00000589,-0.00001758,0.00000957,
 0.00011039,0.00001728,-0.00003536,0.00009353,-0.00005091,-0.00007785,-
 0.00004762,0.00005978,0.00000332,-0.00009000,-0.00002202,0.00001893,-0
 .00001209,-0.00000321,0.00000798,0.00002605,-0.00002759,0.00003828,-0.
 00009460,-0.00002114,0.00002925,-0.00007193,-0.00001455,0.00001305,0.0
 0001440,-0.00001593,0.00000046,0.00105450,-0.00043392,0.00061544,-0.00
 008450,0.00002941,0.00006914,-0.00013028,-0.00017662,-0.00009674,-0.00
 312578,-0.00055971,0.00154590,0.04106017,0.02883743,-0.00369127,0.0025
 8169,0.00076380,-0.00588668,0.00138023,0.00134499,0.00163047,-0.000174
 25,-0.00008234,-0.00005528,-0.00037413,-0.00058361,0.00026454,-0.00124
 601,-0.00067623,-0.00075843,-0.05134547,-0.04235237,-0.04869388,0.0105
 4051,0.01383474,0.05526627\\0.00000511,-0.00000936,0.00000680,-0.00000
 039,0.00000459,0.00000282,-0.00000220,-0.00001046,-0.00000245,0.000003
 23,0.00001015,0.00000354,-0.00000232,-0.00000869,0.00000105,0.00000005
 ,0.00000051,0.00000049,-0.00000024,0.00000138,0.00000111,-0.00000111,0
 .00000171,0.00000307,-0.00000303,-0.00000374,-0.00000198,-0.00000068,-
 0.00000137,-0.00000029,-0.00000250,0.00000435,-0.00000758,0.00000246,-
 0.00000333,-0.00000300,-0.00000081,-0.00000151,-0.00000108,-0.00000028
 ,-0.00000491,-0.00000243,0.00000189,-0.00000159,0.00000120,0.00000798,
 0.00000743,-0.00000198,0.00000040,-0.00000313,0.00000273,-0.00000177,0
 .00000069,-0.00000223,-0.00000690,-0.00000217,-0.00000312,-0.00000398,
 0.00000310,0.00000082,0.00000004,-0.00000068,-0.00000247,0.00000464,0.
 00000352,-0.00000078,-0.00000257,-0.00000034,0.00000097,0.00000061,0.0
 0000009,0.00000049,-0.00000068,0.00000236,0.00000041,0.00000167,0.0000
 0300,0.00000088,0.00000074,0.00000281,0.00000057,0.00000094,0.00000341
 ,0.00000105,-0.00000020,0.00000126,0.00000099,-0.00000008,0.00000093,0
 .00000038\\\@


 IT IS BETTER TO THINK YOU ARE HALF DRY THAN TO KNOW YOU
 ARE ALL WET.  -- SNOOPY
 Job cpu time:       0 days  1 hours 26 minutes 51.4 seconds.
 Elapsed time:       0 days  0 hours 10 minutes 53.4 seconds.
 File lengths (MBytes):  RWF=    319 Int=      0 D2E=      0 Chk=     16 Scr=      1
 Normal termination of Gaussian 16 at Wed May  8 15:56:06 2024.
